 Entering Gaussian System, Link 0=g16
 Input=model_H1.gjf
 Output=model_H1.log
 Initial command:
 /home/zjxu/prog/g16/l1.exe "/home/zjxu/zjhan/5_model/HBr/vacuum_new/Gau-43207.inp" -scrdir="/home/zjxu/zjhan/5_model/HBr/vacuum_new/"
 Entering Link 1 = /home/zjxu/prog/g16/l1.exe PID=     43208.
  
 Copyright (c) 1988-2017, Gaussian, Inc.  All Rights Reserved.
  
 This is part of the Gaussian(R) 16 program.  It is based on
 the Gaussian(R) 09 system (copyright 2009, Gaussian, Inc.),
 the Gaussian(R) 03 system (copyright 2003, Gaussian, Inc.),
 the Gaussian(R) 98 system (copyright 1998, Gaussian, Inc.),
 the Gaussian(R) 94 system (copyright 1995, Gaussian, Inc.),
 the Gaussian 92(TM) system (copyright 1992, Gaussian, Inc.),
 the Gaussian 90(TM) system (copyright 1990, Gaussian, Inc.),
 the Gaussian 88(TM) system (copyright 1988, Gaussian, Inc.),
 the Gaussian 86(TM) system (copyright 1986, Carnegie Mellon
 University), and the Gaussian 82(TM) system (copyright 1983,
 Carnegie Mellon University). Gaussian is a federally registered
 trademark of Gaussian, Inc.
  
 This software contains proprietary and confidential information,
 including trade secrets, belonging to Gaussian, Inc.
  
 This software is provided under written license and may be
 used, copied, transmitted, or stored only in accord with that
 written license.
  
 The following legend is applicable only to US Government
 contracts under FAR:
  
                    RESTRICTED RIGHTS LEGEND
  
 Use, reproduction and disclosure by the US Government is
 subject to restrictions as set forth in subparagraphs (a)
 and (c) of the Commercial Computer Software - Restricted
 Rights clause in FAR 52.227-19.
  
 Gaussian, Inc.
 340 Quinnipiac St., Bldg. 40, Wallingford CT 06492
  
  
 ---------------------------------------------------------------
 Warning -- This program may not be used in any manner that
 competes with the business of Gaussian, Inc. or will provide
 assistance to any competitor of Gaussian, Inc.  The licensee
 of this program is prohibited from giving any competitor of
 Gaussian, Inc. access to this program.  By using this program,
 the user acknowledges that Gaussian, Inc. is engaged in the
 business of creating and licensing software in the field of
 computational chemistry and represents and warrants to the
 licensee that it is not a competitor of Gaussian, Inc. and that
 it will not use this program in any manner prohibited above.
 ---------------------------------------------------------------
  

 Cite this work as:
 Gaussian 16, Revision B.01,
 M. J. Frisch, G. W. Trucks, H. B. Schlegel, G. E. Scuseria, 
 M. A. Robb, J. R. Cheeseman, G. Scalmani, V. Barone, 
 G. A. Petersson, H. Nakatsuji, X. Li, M. Caricato, A. V. Marenich, 
 J. Bloino, B. G. Janesko, R. Gomperts, B. Mennucci, H. P. Hratchian, 
 J. V. Ortiz, A. F. Izmaylov, J. L. Sonnenberg, D. Williams-Young, 
 F. Ding, F. Lipparini, F. Egidi, J. Goings, B. Peng, A. Petrone, 
 T. Henderson, D. Ranasinghe, V. G. Zakrzewski, J. Gao, N. Rega, 
 G. Zheng, W. Liang, M. Hada, M. Ehara, K. Toyota, R. Fukuda, 
 J. Hasegawa, M. Ishida, T. Nakajima, Y. Honda, O. Kitao, H. Nakai, 
 T. Vreven, K. Throssell, J. A. Montgomery, Jr., J. E. Peralta, 
 F. Ogliaro, M. J. Bearpark, J. J. Heyd, E. N. Brothers, K. N. Kudin, 
 V. N. Staroverov, T. A. Keith, R. Kobayashi, J. Normand, 
 K. Raghavachari, A. P. Rendell, J. C. Burant, S. S. Iyengar, 
 J. Tomasi, M. Cossi, J. M. Millam, M. Klene, C. Adamo, R. Cammi, 
 J. W. Ochterski, R. L. Martin, K. Morokuma, O. Farkas, 
 J. B. Foresman, and D. J. Fox, Gaussian, Inc., Wallingford CT, 2016.
 
 ******************************************
 Gaussian 16:  ES64L-G16RevB.01 20-Dec-2017
                27-Mar-2024 
 ******************************************
 %mem=2GB
 %nproc=2
 Will use up to    2 processors via shared memory.
 %chk=model_H1
 ----------------------------------
 # m062x 6-311++G(d,p) opt=z-matrix
 ----------------------------------
 1/10=7,18=40,26=3,38=1/1,3;
 2/12=2,17=6,18=5,29=3,40=1/2;
 3/5=4,6=6,7=1111,11=2,25=1,30=1,71=1,74=-55/1,2,3;
 4//1;
 5/5=2,38=5/2;
 6/7=2,8=2,9=2,10=2,28=1/1;
 7/29=1/1,2,3,16;
 1/10=7,18=40,26=3/3(2);
 2/29=3/2;
 99//99;
 2/29=3/2;
 3/5=4,6=6,7=1111,11=2,25=1,30=1,71=1,74=-55/1,2,3;
 4/5=5,16=3,69=1/1;
 5/5=2,38=5/2;
 7//1,2,3,16;
 1/18=40,26=3/3(-5);
 2/29=3/2;
 6/7=2,8=2,9=2,10=2,19=2,28=1/1;
 99/9=1/99;
 ----
 test
 ----
 Symbolic Z-matrix:
 Charge =  0 Multiplicity = 1
 C1
 C2                   1    d1
 C3                   2    d2       1     120. 
 C4                   3    d3       2     120.     1     0.       0
 C5                   4    d4       3     120.     2     0.       0
 C6                   5    d5       4     120.     3     0.       0
 F7                   1    d6       2     120.     3     180.     0
 H8                   2    d7       3     120.     4     180.     0
 H9                   3    d8       4     120.     5     180.     0
 H10                  4    d9       5     120.     6     180.     0
 H11                  5    d10      6     120.     1     180.     0
 H12                  6    d11      1     120.     2     180.     0
 O13                  7    d12      1     179.9    3     180.     0
 C14                  13   d13      1     179.9    2     180.     0
 H15                  14   d14      1     120.     2     90.      0
 H16                  14   d15      1     120.     2    -90.      0
 H17                  7    d16      1     100.     2     90.      0
 Br18                 17   d17      7     160.     1     0.       0
       Variables:
  d1                    1.3                      
  d2                    1.3                      
  d3                    1.3                      
  d4                    1.3                      
  d5                    1.3                      
  d6                    1.4                      
  d7                    1.                       
  d8                    1.                       
  d9                    1.                       
  d10                   1.                       
  d11                   1.                       
  d12                   2.8                      
  d13                   1.2                      
  d14                   1.                       
  d15                   1.                       
  d16                   2.3                      
  d17                   0.9                      
 

 GradGradGradGradGradGradGradGradGradGradGradGradGradGradGradGradGradGrad
 Berny optimization.
 Initialization pass.
                       ----------------------------
                       !    Initial Parameters    !
                       ! (Angstroms and Degrees)  !
 ----------------------                            ----------------------
 !      Name          Value   Derivative information (Atomic Units)     !
 ------------------------------------------------------------------------
 !       d1          1.3      estimate D2E/DX2                          !
 !       d2          1.3      estimate D2E/DX2                          !
 !       d3          1.3      estimate D2E/DX2                          !
 !       d4          1.3      estimate D2E/DX2                          !
 !       d5          1.3      estimate D2E/DX2                          !
 !       d6          1.4      estimate D2E/DX2                          !
 !       d7          1.0      estimate D2E/DX2                          !
 !       d8          1.0      estimate D2E/DX2                          !
 !       d9          1.0      estimate D2E/DX2                          !
 !       d10         1.0      estimate D2E/DX2                          !
 !       d11         1.0      estimate D2E/DX2                          !
 !       d12         2.8      estimate D2E/DX2                          !
 !       d13         1.2      estimate D2E/DX2                          !
 !       d14         1.0      estimate D2E/DX2                          !
 !       d15         1.0      estimate D2E/DX2                          !
 !       d16         2.3      estimate D2E/DX2                          !
 !       d17         0.9      estimate D2E/DX2                          !
 ------------------------------------------------------------------------
 Trust Radius=3.00D-01 FncErr=1.00D-07 GrdErr=1.00D-06 EigMax=2.50D+02 EigMin=1.00D-04
 Number of steps in this run=     27 maximum allowed number of steps=    100.
 GradGradGradGradGradGradGradGradGradGradGradGradGradGradGradGradGradGrad

 ---------------------------------------------------------------------------------------------------
                            Z-MATRIX (ANGSTROMS AND DEGREES)
   CD    Cent   Atom    N1       Length/X        N2       Alpha/Y        N3        Beta/Z          J
 ---------------------------------------------------------------------------------------------------
      1      1  C 
      2      2  C        1   1.300000(     1)
      3      3  C        2   1.300000(     2)      1  120.000(    18)
      4      4  C        3   1.300000(     3)      2  120.000(    19)      1    0.000(    34)      0
      5      5  C        4   1.300000(     4)      3  120.000(    20)      2    0.000(    35)      0
      6      6  C        5   1.300000(     5)      4  120.000(    21)      3    0.000(    36)      0
      7      7  F        1   1.400000(     6)      2  120.000(    22)      3  180.000(    37)      0
      8      8  H        2   1.000000(     7)      3  120.000(    23)      4  180.000(    38)      0
      9      9  H        3   1.000000(     8)      4  120.000(    24)      5  180.000(    39)      0
     10     10  H        4   1.000000(     9)      5  120.000(    25)      6  180.000(    40)      0
     11     11  H        5   1.000000(    10)      6  120.000(    26)      1  180.000(    41)      0
     12     12  H        6   1.000000(    11)      1  120.000(    27)      2  180.000(    42)      0
     13     13  O        7   2.800000(    12)      1  179.900(    28)      3  180.000(    43)      0
     14     14  C       13   1.200000(    13)      1  179.900(    29)      2  180.000(    44)      0
     15     15  H       14   1.000000(    14)      1  120.000(    30)      2   90.000(    45)      0
     16     16  H       14   1.000000(    15)      1  120.000(    31)      2  -90.000(    46)      0
     17     17  H        7   2.300000(    16)      1  100.000(    32)      2   90.000(    47)      0
     18     18  Br      17   0.900000(    17)      7  160.000(    33)      1    0.000(    48)      0
 ---------------------------------------------------------------------------------------------------
                         Z-Matrix orientation:                         
 ---------------------------------------------------------------------
 Center     Atomic      Atomic             Coordinates (Angstroms)
 Number     Number       Type             X           Y           Z
 ---------------------------------------------------------------------
      1          6           0        0.000000    0.000000    0.000000
      2          6           0        0.000000    0.000000    1.300000
      3          6           0        1.125833    0.000000    1.950000
      4          6           0        2.251666    0.000000    1.300000
      5          6           0        2.251666    0.000000   -0.000000
      6          6           0        1.125833    0.000000   -0.650000
      7          9           0       -1.212436   -0.000000   -0.700000
      8          1           0       -0.866025   -0.000000    1.800000
      9          1           0        1.125833   -0.000000    2.950000
     10          1           0        3.117691   -0.000000    1.800000
     11          1           0        3.117691   -0.000000   -0.500000
     12          1           0        1.125833   -0.000000   -1.650000
     13          8           0       -3.634860   -0.000000   -2.104230
     14          6           0       -4.672340   -0.000000   -2.707251
     15          1           0       -5.104965    0.866025   -2.957922
     16          1           0       -5.104965   -0.866025   -2.957922
     17          1           0       -1.558318    2.265058   -0.899695
     18         35           0       -1.422973    3.151385   -0.821554
 ---------------------------------------------------------------------
                    Distance matrix (angstroms):
                    1          2          3          4          5
     1  C    0.000000
     2  C    1.300000   0.000000
     3  C    2.251666   1.300000   0.000000
     4  C    2.600000   2.251666   1.300000   0.000000
     5  C    2.251666   2.600000   2.251666   1.300000   0.000000
     6  C    1.300000   2.251666   2.600000   2.251666   1.300000
     7  F    1.400000   2.338803   3.534119   4.000000   3.534119
     8  H    1.997498   1.000000   1.997498   3.157531   3.600000
     9  H    3.157531   1.997498   1.000000   1.997498   3.157531
    10  H    3.600000   3.157531   1.997498   1.000000   1.997498
    11  H    3.157531   3.600000   3.157531   1.997498   1.000000
    12  H    1.997498   3.157531   3.600000   3.157531   1.997498
    13  O    4.199999   4.980059   6.253077   6.799997   6.251317
    14  C    5.399997   6.155390   7.436988   7.999995   7.434452
    15  H    5.963218   6.703772   7.978755   8.543999   7.976172
    16  H    5.963218   6.703772   7.978755   8.543999   7.976172
    17  H    2.892800   3.521009   4.522822   4.948245   4.522822
    18  Br   3.554016   4.056731   4.910107   5.285375   4.910107
                    6          7          8          9         10
     6  C    0.000000
     7  F    2.338803   0.000000
     8  H    3.157531   2.523886   0.000000
     9  H    3.600000   4.334743   2.300000   0.000000
    10  H    3.157531   5.000000   3.983717   2.300000   0.000000
    11  H    1.997498   4.334743   4.600000   3.983717   2.300000
    12  H    1.000000   2.523886   3.983717   4.600000   3.983717
    13  O    4.977849   2.800000   4.786382   6.943301   7.799997
    14  C    6.152324   3.999999   5.899436   8.100821   8.999995
    15  H    6.700697   4.582575   6.430896   8.629970   9.539387
    16  H    6.700697   4.582575   6.430896   8.629970   9.539387
    17  H    3.521009   2.300000   3.591394   5.211076   5.855246
    18  Br   4.056731   3.160748   4.136902   5.536448   6.117303
                   11         12         13         14         15
    11  H    0.000000
    12  H    2.300000   0.000000
    13  O    6.940497   4.782313   0.000000
    14  C    8.096700   5.893776   1.200000   0.000000
    15  H    8.625744   6.425224   1.907878   1.000000   0.000000
    16  H    8.625744   6.425224   1.907878   1.000000   1.732051
    17  H    5.211076   3.591394   3.300517   4.253807   4.332700
    18  Br   5.536448   4.136902   4.058193   4.903618   4.831563
                   16         17         18
    16  H    0.000000
    17  H    5.159329   0.000000
    18  Br   5.853266   0.900000   0.000000
 Stoichiometry    C7H8BrFO
 Framework group  C1[X(C7H8BrFO)]
 Deg. of freedom    48
 Full point group                 C1      NOp   1
 Largest Abelian subgroup         C1      NOp   1
 Largest concise Abelian subgroup C1      NOp   1
                         Standard orientation:                         
 ---------------------------------------------------------------------
 Center     Atomic      Atomic             Coordinates (Angstroms)
 Number     Number       Type             X           Y           Z
 ---------------------------------------------------------------------
      1          6           0       -1.165607   -0.842885   -0.001289
      2          6           0       -1.796555   -0.681544   -1.126399
      3          6           0       -3.056661   -0.361963   -1.124958
      4          6           0       -3.685818   -0.203722    0.001595
      5          6           0       -3.054870   -0.365062    1.126706
      6          6           0       -1.794765   -0.684643    1.125264
      7          9           0        0.191429   -1.187049   -0.002841
      8          1           0       -1.312588   -0.803269   -1.992978
      9          1           0       -3.542005   -0.237855   -1.990427
     10          1           0       -4.655130    0.042110    0.002704
     11          1           0       -3.538838   -0.243338    1.993284
     12          1           0       -1.309420   -0.808751    1.990734
     13          8           0        2.905502   -1.875384   -0.001060
     14          6           0        4.068674   -2.170386    0.001100
     15          1           0        4.766228   -1.453854    0.002307
     16          1           0        4.340433   -3.132751    0.000335
     17          1           0        1.135389    0.910315   -0.000706
     18         35           0        1.201791    1.807861    0.000477
 ---------------------------------------------------------------------
 Rotational constants (GHZ):           0.9947613           0.4592019           0.3473559
 Standard basis: 6-311++G(d,p) (5D, 7F)
 There are   314 symmetry adapted cartesian basis functions of A   symmetry.
 There are   302 symmetry adapted basis functions of A   symmetry.
   302 basis functions,   490 primitive gaussians,   314 cartesian basis functions
    51 alpha electrons       51 beta electrons
       nuclear repulsion energy       716.1909826734 Hartrees.
 NAtoms=   18 NActive=   18 NUniq=   18 SFac= 1.00D+00 NAtFMM=   60 NAOKFM=F Big=F
 Integral buffers will be    131072 words long.
 Raffenetti 2 integral format.
 Two-electron integral symmetry is turned on.
 One-electron integrals computed using PRISM.
 NBasis=   302 RedAO= T EigKep=  4.16D-06  NBF=   302
 NBsUse=   301 1.00D-06 EigRej=  5.70D-07 NBFU=   301
 ExpMin= 3.50D-02 ExpMax= 4.40D+05 ExpMxC= 1.51D+04 IAcc=3 IRadAn=         5 AccDes= 0.00D+00
 Harris functional with IExCor= 1009 and IRadAn=       5 diagonalized for initial guess.
 HarFok:  IExCor= 1009 AccDes= 0.00D+00 IRadAn=         5 IDoV= 1 UseB2=F ITyADJ=14
 ICtDFT=  3500011 ScaDFX=  1.000000  1.000000  1.000000  1.000000
 FoFCou: FMM=F IPFlag=           0 FMFlag=      100000 FMFlg1=           0
         NFxFlg=           0 DoJE=T BraDBF=F KetDBF=T FulRan=T
         wScrn=  0.000000 ICntrl=       500 IOpCl=  0 I1Cent=   200000004 NGrid=           0
         NMat0=    1 NMatS0=      1 NMatT0=    0 NMatD0=    1 NMtDS0=    0 NMtDT0=    0
 Petite list used in FoFCou.
 Requested convergence on RMS density matrix=1.00D-08 within 128 cycles.
 Requested convergence on MAX density matrix=1.00D-06.
 Requested convergence on             energy=1.00D-06.
 No special actions if energy rises.
 SCF Done:  E(RM062X) =  -3020.23664449     A.U. after   14 cycles
            NFock= 14  Conv=0.43D-08     -V/T= 2.0000

 **********************************************************************

            Population analysis using the SCF Density.

 **********************************************************************

 Orbital symmetries:
       Occupied  (A) (A) (A) (A) (A) (A) (A) (A) (A) (A) (A) (A)
                 (A) (A) (A) (A) (A) (A) (A) (A) (A) (A) (A) (A)
                 (A) (A) (A) (A) (A) (A) (A) (A) (A) (A) (A) (A)
                 (A) (A) (A) (A) (A) (A) (A) (A) (A) (A) (A) (A)
                 (A) (A) (A)
       Virtual   (A) (A) (A) (A) (A) (A) (A) (A) (A) (A) (A) (A)
                 (A) (A) (A) (A) (A) (A) (A) (A) (A) (A) (A) (A)
                 (A) (A) (A) (A) (A) (A) (A) (A) (A) (A) (A) (A)
                 (A) (A) (A) (A) (A) (A) (A) (A) (A) (A) (A) (A)
                 (A) (A) (A) (A) (A) (A) (A) (A) (A) (A) (A) (A)
                 (A) (A) (A) (A) (A) (A) (A) (A) (A) (A) (A) (A)
                 (A) (A) (A) (A) (A) (A) (A) (A) (A) (A) (A) (A)
                 (A) (A) (A) (A) (A) (A) (A) (A) (A) (A) (A) (A)
                 (A) (A) (A) (A) (A) (A) (A) (A) (A) (A) (A) (A)
                 (A) (A) (A) (A) (A) (A) (A) (A) (A) (A) (A) (A)
                 (A) (A) (A) (A) (A) (A) (A) (A) (A) (A) (A) (A)
                 (A) (A) (A) (A) (A) (A) (A) (A) (A) (A) (A) (A)
                 (A) (A) (A) (A) (A) (A) (A) (A) (A) (A) (A) (A)
                 (A) (A) (A) (A) (A) (A) (A) (A) (A) (A) (A) (A)
                 (A) (A) (A) (A) (A) (A) (A) (A) (A) (A) (A) (A)
                 (A) (A) (A) (A) (A) (A) (A) (A) (A) (A) (A) (A)
                 (A) (A) (A) (A) (A) (A) (A) (A) (A) (A) (A) (A)
                 (A) (A) (A) (A) (A) (A) (A) (A) (A) (A) (A) (A)
                 (A) (A) (A) (A) (A) (A) (A) (A) (A) (A) (A) (A)
                 (A) (A) (A) (A) (A) (A) (A) (A) (A) (A) (A) (A)
                 (A) (A) (A) (A) (A) (A) (A) (A) (A) (A)
 The electronic state is 1-A.
 Alpha  occ. eigenvalues -- -485.31286 -63.31633 -57.14183 -57.14000 -57.14000
 Alpha  occ. eigenvalues --  -25.23510 -19.63516 -10.61435 -10.60626 -10.52079
 Alpha  occ. eigenvalues --  -10.52075 -10.51942 -10.51936 -10.51300  -9.01568
 Alpha  occ. eigenvalues --   -6.85175  -6.82990  -6.82986  -2.88879  -2.87075
 Alpha  occ. eigenvalues --   -2.87073  -2.85835  -2.85835  -1.34031  -1.18591
 Alpha  occ. eigenvalues --   -1.02774  -0.97958  -0.89052  -0.88022  -0.75202
 Alpha  occ. eigenvalues --   -0.73443  -0.71889  -0.65815  -0.60511  -0.58415
 Alpha  occ. eigenvalues --   -0.57921  -0.55828  -0.53686  -0.52896  -0.52689
 Alpha  occ. eigenvalues --   -0.52335  -0.48733  -0.47061  -0.46933  -0.44279
 Alpha  occ. eigenvalues --   -0.41797  -0.36275  -0.36230  -0.34566  -0.33530
 Alpha  occ. eigenvalues --   -0.32206
 Alpha virt. eigenvalues --   -0.00662  -0.00033   0.00445   0.01399   0.02197
 Alpha virt. eigenvalues --    0.02650   0.02835   0.03535   0.03699   0.04239
 Alpha virt. eigenvalues --    0.04699   0.06424   0.06768   0.07048   0.07215
 Alpha virt. eigenvalues --    0.07860   0.08541   0.10061   0.10625   0.11242
 Alpha virt. eigenvalues --    0.11655   0.12362   0.12799   0.13332   0.13438
 Alpha virt. eigenvalues --    0.13939   0.14465   0.14859   0.15217   0.15303
 Alpha virt. eigenvalues --    0.15744   0.16551   0.17394   0.17399   0.18195
 Alpha virt. eigenvalues --    0.18694   0.19255   0.19943   0.21177   0.21784
 Alpha virt. eigenvalues --    0.22841   0.23199   0.23864   0.24501   0.26323
 Alpha virt. eigenvalues --    0.26685   0.26897   0.29954   0.31726   0.32664
 Alpha virt. eigenvalues --    0.33533   0.33970   0.34843   0.35869   0.36613
 Alpha virt. eigenvalues --    0.37601   0.39382   0.40809   0.41005   0.42615
 Alpha virt. eigenvalues --    0.42932   0.43278   0.44132   0.45875   0.46319
 Alpha virt. eigenvalues --    0.47482   0.48675   0.52173   0.54558   0.55208
 Alpha virt. eigenvalues --    0.55793   0.57609   0.57954   0.59287   0.59318
 Alpha virt. eigenvalues --    0.60123   0.60262   0.61606   0.63715   0.63784
 Alpha virt. eigenvalues --    0.64575   0.65476   0.65689   0.66425   0.69031
 Alpha virt. eigenvalues --    0.70353   0.70380   0.71828   0.72291   0.74638
 Alpha virt. eigenvalues --    0.75015   0.76468   0.78220   0.81489   0.81495
 Alpha virt. eigenvalues --    0.85127   0.85830   0.88430   0.89446   0.89984
 Alpha virt. eigenvalues --    0.94761   0.95374   0.98602   1.00302   1.01312
 Alpha virt. eigenvalues --    1.02365   1.02412   1.05233   1.06476   1.07825
 Alpha virt. eigenvalues --    1.08340   1.10436   1.11843   1.16346   1.17255
 Alpha virt. eigenvalues --    1.17300   1.19701   1.24220   1.24678   1.28236
 Alpha virt. eigenvalues --    1.30083   1.34604   1.35194   1.41794   1.51343
 Alpha virt. eigenvalues --    1.52373   1.52578   1.54802   1.58231   1.61076
 Alpha virt. eigenvalues --    1.61148   1.63327   1.64998   1.67777   1.68156
 Alpha virt. eigenvalues --    1.69441   1.69445   1.71954   1.72377   1.74971
 Alpha virt. eigenvalues --    1.76586   1.76649   1.81139   1.82119   1.84719
 Alpha virt. eigenvalues --    1.85320   1.85804   1.90118   1.94277   1.96918
 Alpha virt. eigenvalues --    1.97999   1.99426   2.02938   2.04387   2.04677
 Alpha virt. eigenvalues --    2.06004   2.06216   2.06346   2.07852   2.12619
 Alpha virt. eigenvalues --    2.16333   2.17584   2.17659   2.19510   2.20071
 Alpha virt. eigenvalues --    2.22016   2.25255   2.35604   2.41155   2.46600
 Alpha virt. eigenvalues --    2.48388   2.50666   2.51338   2.57995   2.63409
 Alpha virt. eigenvalues --    2.66611   2.71044   2.71202   2.74678   2.76701
 Alpha virt. eigenvalues --    2.76709   2.78709   2.79208   2.80926   2.86380
 Alpha virt. eigenvalues --    2.86648   2.88231   2.89120   2.90589   2.97082
 Alpha virt. eigenvalues --    2.98484   2.98975   3.00014   3.03865   3.08487
 Alpha virt. eigenvalues --    3.11941   3.24560   3.27457   3.35048   3.40319
 Alpha virt. eigenvalues --    3.42313   3.55469   3.60225   3.62016   3.64996
 Alpha virt. eigenvalues --    3.75392   3.76013   3.88006   3.90545   3.99430
 Alpha virt. eigenvalues --    4.00160   4.06544   4.09204   4.14485   4.18862
 Alpha virt. eigenvalues --    4.19801   4.26095   4.26671   4.27369   4.29529
 Alpha virt. eigenvalues --    4.30361   4.34107   4.37433   4.91926   4.96023
 Alpha virt. eigenvalues --    4.97073   5.11758   5.24383   5.82247   6.55157
 Alpha virt. eigenvalues --    6.62745   6.90021   7.00426   7.64301   7.67652
 Alpha virt. eigenvalues --    7.84591  23.73324  24.17427  24.27293  24.31966
 Alpha virt. eigenvalues --   24.54674  24.57713  24.73158  48.52690  50.07138
 Alpha virt. eigenvalues --   66.98142 290.79907 290.83433 291.039901021.15035
          Condensed to atoms (all electrons):
               1          2          3          4          5          6
     1  C   10.468218  -1.004104  -1.149262  -0.018326  -1.147430  -0.996837
     2  C   -1.004104  12.646580   0.848935  -0.690158   0.151474  -6.289944
     3  C   -1.149262   0.848935   5.756825   0.457335  -0.248278   0.146001
     4  C   -0.018326  -0.690158   0.457335   6.490005   0.455770  -0.682323
     5  C   -1.147430   0.151474  -0.248278   0.455770   5.756622   0.843436
     6  C   -0.996837  -6.289944   0.146001  -0.682323   0.843436  12.642900
     7  F    0.522971  -0.265872  -0.047786   0.039136  -0.047956  -0.265731
     8  H   -0.177850   0.658668  -0.038487  -0.020027   0.020701  -0.111578
     9  H    0.024947  -0.080342   0.424421  -0.116440  -0.009744   0.084789
    10  H    0.037151  -0.022534  -0.068031   0.499691  -0.068160  -0.022248
    11  H    0.025033   0.084992  -0.009743  -0.116584   0.424609  -0.080679
    12  H   -0.177349  -0.110820   0.020603  -0.019986  -0.038727   0.657702
    13  O    0.040365  -0.013359  -0.001023  -0.000461  -0.000997  -0.013286
    14  C    0.004228  -0.002942  -0.000608   0.000749  -0.000629  -0.003117
    15  H    0.000619  -0.000327  -0.000108  -0.000074  -0.000105  -0.000317
    16  H   -0.001935   0.000734   0.000242  -0.000031   0.000239   0.000724
    17  H   -0.157976   0.031047   0.032732  -0.005526   0.033156   0.030750
    18  Br   0.255699  -0.056051  -0.054291   0.023893  -0.054554  -0.055305
               7          8          9         10         11         12
     1  C    0.522971  -0.177850   0.024947   0.037151   0.025033  -0.177349
     2  C   -0.265872   0.658668  -0.080342  -0.022534   0.084992  -0.110820
     3  C   -0.047786  -0.038487   0.424421  -0.068031  -0.009743   0.020603
     4  C    0.039136  -0.020027  -0.116440   0.499691  -0.116584  -0.019986
     5  C   -0.047956   0.020701  -0.009744  -0.068160   0.424609  -0.038727
     6  C   -0.265731  -0.111578   0.084789  -0.022248  -0.080679   0.657702
     7  F    9.290595  -0.029554  -0.001358   0.001646  -0.001353  -0.029500
     8  H   -0.029554   0.516375  -0.013095  -0.000321   0.003332   0.000517
     9  H   -0.001358  -0.013095   0.512096  -0.015856   0.000419   0.003328
    10  H    0.001646  -0.000321  -0.015856   0.516791  -0.015865  -0.000312
    11  H   -0.001353   0.003332   0.000419  -0.015865   0.512116  -0.013108
    12  H   -0.029500   0.000517   0.003328  -0.000312  -0.013108   0.516376
    13  O    0.008676   0.000462   0.000049   0.000006   0.000049   0.000463
    14  C    0.003557  -0.000431  -0.000041   0.000015  -0.000041  -0.000430
    15  H   -0.000710  -0.000094   0.000008  -0.000002   0.000008  -0.000097
    16  H   -0.000423   0.000100  -0.000001  -0.000002  -0.000001   0.000103
    17  H    0.032688   0.008021   0.001893  -0.001515   0.001903   0.007952
    18  Br  -0.031579  -0.008295  -0.002978   0.002132  -0.002988  -0.008232
              13         14         15         16         17         18
     1  C    0.040365   0.004228   0.000619  -0.001935  -0.157976   0.255699
     2  C   -0.013359  -0.002942  -0.000327   0.000734   0.031047  -0.056051
     3  C   -0.001023  -0.000608  -0.000108   0.000242   0.032732  -0.054291
     4  C   -0.000461   0.000749  -0.000074  -0.000031  -0.005526   0.023893
     5  C   -0.000997  -0.000629  -0.000105   0.000239   0.033156  -0.054554
     6  C   -0.013286  -0.003117  -0.000317   0.000724   0.030750  -0.055305
     7  F    0.008676   0.003557  -0.000710  -0.000423   0.032688  -0.031579
     8  H    0.000462  -0.000431  -0.000094   0.000100   0.008021  -0.008295
     9  H    0.000049  -0.000041   0.000008  -0.000001   0.001893  -0.002978
    10  H    0.000006   0.000015  -0.000002  -0.000002  -0.001515   0.002132
    11  H    0.000049  -0.000041   0.000008  -0.000001   0.001903  -0.002988
    12  H    0.000463  -0.000430  -0.000097   0.000103   0.007952  -0.008232
    13  O    8.128702   0.292427  -0.084417  -0.095327   0.028515  -0.024060
    14  C    0.292427   4.850439   0.386842   0.396081  -0.006007   0.002377
    15  H   -0.084417   0.386842   0.773671  -0.180005   0.006809  -0.002461
    16  H   -0.095327   0.396081  -0.180005   0.778173  -0.002010   0.001102
    17  H    0.028515  -0.006007   0.006809  -0.002010   1.163299  -0.010100
    18  Br  -0.024060   0.002377  -0.002461   0.001102  -0.010100  34.828026
 Mulliken charges:
               1
     1  C   -0.548161
     2  C    0.114023
     3  C   -0.069477
     4  C   -0.296643
     5  C   -0.069428
     6  C    0.115064
     7  F   -0.177444
     8  H    0.191556
     9  H    0.187905
    10  H    0.157414
    11  H    0.187902
    12  H    0.191516
    13  O   -0.266786
    14  C    0.077530
    15  H    0.100759
    16  H    0.102238
    17  H   -0.195632
    18  Br   0.197665
 Sum of Mulliken charges =  -0.00000
 Mulliken charges with hydrogens summed into heavy atoms:
               1
     1  C   -0.548161
     2  C    0.305579
     3  C    0.118428
     4  C   -0.139230
     5  C    0.118474
     6  C    0.306581
     7  F   -0.177444
    13  O   -0.266786
    14  C    0.280527
    18  Br   0.002032
 Electronic spatial extent (au):  <R**2>=           3017.9144
 Charge=             -0.0000 electrons
 Dipole moment (field-independent basis, Debye):
    X=              0.3852    Y=             -1.2295    Z=              0.0050  Tot=              1.2884
 Quadrupole moment (field-independent basis, Debye-Ang):
   XX=            -47.0966   YY=            -71.6735   ZZ=            -65.1735
   XY=             -8.2036   XZ=              0.0133   YZ=             -0.0190
 Traceless Quadrupole moment (field-independent basis, Debye-Ang):
   XX=             14.2179   YY=            -10.3589   ZZ=             -3.8590
   XY=             -8.2036   XZ=              0.0133   YZ=             -0.0190
 Octapole moment (field-independent basis, Debye-Ang**2):
  XXX=            117.4554  YYY=             36.1307  ZZZ=             -0.0101  XYY=             44.6485
  XXY=            -26.1852  XXZ=              0.0447  XZZ=              7.7893  YZZ=              9.2080
  YYZ=              0.0323  XYZ=             -0.0049
 Hexadecapole moment (field-independent basis, Debye-Ang**3):
 XXXX=          -2030.2279 YYYY=           -804.8322 ZZZZ=           -265.3398 XXXY=           -198.7542
 XXXZ=              0.1250 YYYX=            -28.1582 YYYZ=              0.0463 ZZZX=             -0.0036
 ZZZY=              0.0010 XXYY=           -494.5031 XXZZ=           -448.3309 YYZZ=           -193.7955
 XXYZ=             -0.1223 YYXZ=              0.0519 ZZXY=             12.1161
 N-N= 7.161909826734D+02 E-N=-8.634816873958D+03  KE= 3.020207926566D+03
 Calling FoFJK, ICntrl=      2127 FMM=F ISym2X=0 I1Cent= 0 IOpClX= 0 NMat=1 NMatS=1 NMatT=0.
 ***** Axes restored to original set *****
 -------------------------------------------------------------------
 Center     Atomic                   Forces (Hartrees/Bohr)
 Number     Number              X              Y              Z
 -------------------------------------------------------------------
      1        6          -0.096080331   -0.000458803   -0.055468130
      2        6          -0.051733557   -0.000177807    0.015777560
      3        6           0.002440596    0.000203498    0.036645410
      4        6           0.039325112   -0.000148312    0.022703011
      5        6           0.032953724    0.000203330   -0.016204909
      6        6          -0.012202475   -0.000179061   -0.052696649
      7        9           0.028965277   -0.000026245    0.016723885
      8        1          -0.065711600    0.000037712    0.035311371
      9        1          -0.001517646    0.000039826    0.073927732
     10        1           0.064360802    0.000038358    0.037158251
     11        1           0.063265327    0.000040207   -0.038277973
     12        1          -0.002275100    0.000038215   -0.074562843
     13        8           0.009471740    0.000437513    0.005440512
     14        6           0.068924627    0.000300606    0.040149205
     15        1          -0.039712222    0.072475557   -0.023092644
     16        1          -0.039614773   -0.072508132   -0.023035436
     17        1          -0.179384115   -1.168919105   -0.103597523
     18       35           0.178524614    1.168602643    0.103099172
 -------------------------------------------------------------------
 Cartesian Forces:  Max     1.168919105 RMS     0.231350458
 -----------------------------------------------------------------------------------------------
                       Internal Coordinate Forces (Hartree/Bohr or radian)
  Cent   Atom   N1       Length/X         N2         Alpha/Y        N3         Beta/Z          J
 -----------------------------------------------------------------------------------------------
      1  C 
      2  C        1   0.038265(     1)
      3  C        2   0.154215(     2)      1   0.167129(    18)
      4  C        3   0.221525(     3)      2   0.417935(    19)      1   0.000208(    34)     0
      5  C        4   0.183258(     4)      3   0.450906(    20)      2  -0.000078(    35)     0
      6  C        5   0.077683(     5)      4   0.252246(    21)      3  -0.000297(    36)     0
      7  F        1  -0.031378(     6)      2   0.000011(    22)      3   0.000633(    37)     0
      8  H        2   0.074564(     7)      3   0.004300(    23)      4   0.000062(    38)     0
      9  H        3   0.073928(     8)      4   0.002868(    24)      5   0.000065(    39)     0
     10  H        4   0.074317(     9)      5  -0.000001(    25)      6   0.000063(    40)     0
     11  H        5   0.073928(    10)      6  -0.002867(    26)      1   0.000066(    41)     0
     12  H        6   0.074563(    11)      1  -0.004299(    27)      2   0.000063(    42)     0
     13  O        7   0.001075(    12)      1   0.000003(    28)      3  -0.000007(    43)     0
     14  C       13   0.011998(    13)      1   0.000102(    29)      2  -0.000001(    44)     0
     15  H       14   0.085735(    14)      1   0.006701(    30)      2   0.000117(    45)     0
     16  H       14   0.085707(    15)      1   0.006485(    31)      2  -0.000116(    46)     0
     17  H        7  -0.000139(    16)      1   0.004324(    32)      2  -0.000033(    47)     0
     18  Br      17   1.186648(    17)      7  -0.000168(    33)      1  -0.000014(    48)     0
 -----------------------------------------------------------------------------------------------
 Internal  Forces:  Max     1.186647633 RMS     0.205911327

 GradGradGradGradGradGradGradGradGradGradGradGradGradGradGradGradGradGrad
 Berny optimization.
 Search for a local minimum.
 Step number   1 out of a maximum of   27
 All quantities printed in internal units (Hartrees-Bohrs-Radians)
 Second derivative matrix not updated -- first step.
 The second derivative matrix:
                          d1        d2        d3        d4        d5
           d1           0.95300
           d2          -0.05489   0.95300
           d3          -0.33597   0.33597   1.34386
           d4          -0.28107   0.05489   0.33597   0.95300
           d5           0.05489  -0.28107  -0.33597  -0.05489   0.95300
           d6           0.00000   0.00000   0.00000  -0.00000  -0.00000
           d7          -0.00000  -0.00000  -0.00000   0.00000   0.00000
           d8           0.00000   0.00000   0.00000  -0.00000  -0.00000
           d9          -0.00000  -0.00000  -0.00000   0.00000   0.00000
           d10          0.00000  -0.00000  -0.00000   0.00000  -0.00000
           d11         -0.00000  -0.00000   0.00000  -0.00000   0.00000
           d12          0.00000   0.00000   0.00000  -0.00000  -0.00000
           d13          0.00000   0.00000   0.00000  -0.00000  -0.00000
           d14          0.00000   0.00000   0.00000  -0.00000  -0.00000
           d15         -0.00000  -0.00000   0.00000   0.00000   0.00000
           d16         -0.00000  -0.00000  -0.00000   0.00000   0.00000
           d17         -0.00000  -0.00000   0.00000   0.00000   0.00000
                          d6        d7        d8        d9        d10
           d6           0.45621
           d7           0.00000   0.47688
           d8          -0.00000   0.00000   0.47688
           d9           0.00000  -0.00000   0.00000   0.47688
           d10          0.00000  -0.00000   0.00000  -0.00000   0.47688
           d11          0.00000   0.00000  -0.00000   0.00000  -0.00000
           d12         -0.00000   0.00000  -0.00000   0.00000   0.00000
           d13         -0.00000   0.00000  -0.00000   0.00000   0.00000
           d14          0.00000  -0.00000  -0.00000   0.00000   0.00000
           d15          0.00000   0.00000   0.00000  -0.00000  -0.00000
           d16         -0.00000  -0.00000   0.00000  -0.00000  -0.00000
           d17          0.00000  -0.00000   0.00000  -0.00000  -0.00000
                          d11       d12       d13       d14       d15
           d11          0.47688
           d12          0.00000   0.02330
           d13          0.00000  -0.00000   1.04823
           d14          0.00000   0.00000   0.00000   0.47688
           d15         -0.00000   0.00000  -0.00000   0.00000   0.47688
           d16         -0.00000   0.00000  -0.00000   0.00000  -0.00000
           d17         -0.00000   0.00000   0.00000   0.00000  -0.00000
                          d16       d17
           d16          0.02721
           d17          0.00000   1.79711
 ITU=  0
     Eigenvalues ---    0.02330   0.02721   0.45621   0.47688   0.47688
     Eigenvalues ---    0.47688   0.47688   0.47688   0.47688   0.47688
     Eigenvalues ---    0.67193   0.67193   0.67193   1.04823   1.12429
     Eigenvalues ---    1.79711   2.01579
 RFO step:  Lambda=-6.72053098D-01 EMin= 2.33007068D-02
 Linear search not attempted -- first point.
 Maximum step size (   0.300) exceeded in Quadratic search.
    -- Step size scaled by   0.544
 Variable       Old X    -DE/DX   Delta X   Delta X   Delta X     New X
                                 (Linear)    (Quad)   (Total)
    d1        2.45664   0.03827   0.00000   0.03407   0.03407   2.49071
    d2        2.45664   0.15421   0.00000   0.04739   0.04739   2.50403
    d3        2.45664   0.22153   0.00000   0.05608   0.05608   2.51273
    d4        2.45664   0.18326   0.00000   0.05566   0.05566   2.51230
    d5        2.45664   0.07768   0.00000   0.04654   0.04654   2.50319
    d6        2.64562  -0.03138   0.00000  -0.01514  -0.01514   2.63048
    d7        1.88973   0.07456   0.00000   0.03533   0.03533   1.92506
    d8        1.88973   0.07393   0.00000   0.03503   0.03503   1.92475
    d9        1.88973   0.07432   0.00000   0.03521   0.03521   1.92494
   d10        1.88973   0.07393   0.00000   0.03503   0.03503   1.92476
   d11        1.88973   0.07456   0.00000   0.03533   0.03533   1.92506
   d12        5.29123   0.00108   0.00000   0.00084   0.00084   5.29207
   d13        2.26767   0.01200   0.00000   0.00380   0.00380   2.27147
   d14        1.88973   0.08573   0.00000   0.04062   0.04062   1.93035
   d15        1.88973   0.08571   0.00000   0.04061   0.04061   1.93034
   d16        4.34637  -0.00014   0.00000  -0.00011  -0.00011   4.34626
   d17        1.70075   1.18665   0.00000   0.26163   0.26163   1.96238
         Item               Value     Threshold  Converged?
 Maximum Force            1.186648     0.000450     NO 
 RMS     Force            0.303457     0.000300     NO 
 Maximum Displacement     0.261629     0.001800     NO 
 RMS     Displacement     0.072761     0.001200     NO 
 Predicted change in Energy=-2.965179D-01
 GradGradGradGradGradGradGradGradGradGradGradGradGradGradGradGradGradGrad

 ---------------------------------------------------------------------------------------------------
                            Z-MATRIX (ANGSTROMS AND DEGREES)
   CD    Cent   Atom    N1       Length/X        N2       Alpha/Y        N3        Beta/Z          J
 ---------------------------------------------------------------------------------------------------
      1      1  C 
      2      2  C        1   1.318029(     1)
      3      3  C        2   1.325077(     2)      1  120.000(    18)
      4      4  C        3   1.329678(     3)      2  120.000(    19)      1    0.000(    34)      0
      5      5  C        4   1.329455(     4)      3  120.000(    20)      2    0.000(    35)      0
      6      6  C        5   1.324630(     5)      4  120.000(    21)      3    0.000(    36)      0
      7      7  F        1   1.391988(     6)      2  120.000(    22)      3  180.000(    37)      0
      8      8  H        2   1.018696(     7)      3  120.000(    23)      4  180.000(    38)      0
      9      9  H        3   1.018536(     8)      4  120.000(    24)      5  180.000(    39)      0
     10     10  H        4   1.018634(     9)      5  120.000(    25)      6  180.000(    40)      0
     11     11  H        5   1.018537(    10)      6  120.000(    26)      1  180.000(    41)      0
     12     12  H        6   1.018696(    11)      1  120.000(    27)      2  180.000(    42)      0
     13     13  O        7   2.800445(    12)      1  179.900(    28)      3  180.000(    43)      0
     14     14  C       13   1.202009(    13)      1  179.900(    29)      2  180.000(    44)      0
     15     15  H       14   1.021497(    14)      1  120.000(    30)      2   90.000(    45)      0
     16     16  H       14   1.021490(    15)      1  120.000(    31)      2  -90.000(    46)      0
     17     17  H        7   2.299943(    16)      1  100.000(    32)      2   90.000(    47)      0
     18     18  Br      17   1.038448(    17)      7  160.000(    33)      1    0.000(    48)      0
 ---------------------------------------------------------------------------------------------------
                         Z-Matrix orientation:                         
 ---------------------------------------------------------------------
 Center     Atomic      Atomic             Coordinates (Angstroms)
 Number     Number       Type             X           Y           Z
 ---------------------------------------------------------------------
      1          6           0        0.000000    0.000000    0.000000
      2          6           0        0.000000    0.000000    1.318029
      3          6           0        1.147550    0.000000    1.980567
      4          6           0        2.299085    0.000000    1.315728
      5          6           0        2.299085    0.000000   -0.013726
      6          6           0        1.151922    0.000000   -0.676042
      7          9           0       -1.205497   -0.000000   -0.695994
      8          1           0       -0.882217   -0.000000    1.827377
      9          1           0        1.147550   -0.000000    2.999104
     10          1           0        3.181248   -0.000000    1.825045
     11          1           0        3.181164   -0.000000   -0.522995
     12          1           0        1.144670   -0.000000   -1.694711
     13          8           0       -3.628306   -0.000000   -2.100448
     14          6           0       -4.667523   -0.000000   -2.704480
     15          1           0       -5.109447    0.884642   -2.960542
     16          1           0       -5.109443   -0.884636   -2.960540
     17          1           0       -1.551371    2.265001   -0.895685
     18         35           0       -1.395205    3.287673   -0.805522
 ---------------------------------------------------------------------
                    Distance matrix (angstroms):
                    1          2          3          4          5
     1  C    0.000000
     2  C    1.318029   0.000000
     3  C    2.288999   1.325077   0.000000
     4  C    2.648949   2.299086   1.329678   0.000000
     5  C    2.299126   2.656946   2.302876   1.329455   0.000000
     6  C    1.335648   2.302877   2.656612   2.298506   1.324630
     7  F    1.391988   2.347235   3.563820   4.040931   3.570376
     8  H    2.029190   1.018696   2.035539   3.222183   3.675642
     9  H    3.211151   2.035408   1.018536   2.039555   3.225396
    10  H    3.667578   3.221398   2.039636   1.018634   2.039434
    11  H    3.223868   3.675482   3.225431   2.039354   1.018537
    12  H    2.045071   3.222867   3.675280   3.224193   2.039212
    13  O    4.192432   4.985036   6.281997   6.841362   6.283978
    14  C    5.394440   6.161684   7.467579   8.043364   7.468185
    15  H    5.971084   6.722738   8.021668   8.599734   8.022011
    16  H    5.971079   6.722733   8.021664   8.599729   8.022006
    17  H    2.887773   3.526685   4.548322   4.984635   4.553471
    18  Br   3.661183   4.155100   5.003668   5.381104   5.008345
                    6          7          8          9         10
     6  C    0.000000
     7  F    2.357503   0.000000
     8  H    3.225651   2.543995   0.000000
     9  H    3.675148   4.380705   2.343693   0.000000
    10  H    3.220807   5.059563   4.063465   2.348263   0.000000
    11  H    2.035005   4.390071   4.694178   4.067033   2.348040
    12  H    1.018696   2.553570   4.063665   4.693816   4.066490
    13  O    4.987937   2.800445   4.792579   6.986718   7.859995
    14  C    6.162832   4.002454   5.904767   8.145302   9.061998
    15  H    6.723560   4.599086   6.447963   8.686194   9.613535
    16  H    6.723556   4.599081   6.447959   8.686190   9.613531
    17  H    3.533591   2.299943   3.604589   5.252026   5.910185
    18  Br   4.160939   3.294963   4.243125   5.634676   6.218730
                   11         12         13         14         15
    11  H    0.000000
    12  H    2.349517   0.000000
    13  O    6.989796   4.790190   0.000000
    14  C    8.146211   5.899256   1.202009   0.000000
    15  H    8.686682   6.441963   1.927727   1.021497   0.000000
    16  H    8.686678   6.441959   1.927721   1.021490   1.769278
    17  H    5.259849   3.610722   3.300810   4.255864   4.339231
    18  Br   5.641965   4.248578   4.179996   5.012275   4.920798
                   16         17         18
    16  H    0.000000
    17  H    5.181093   0.000000
    18  Br   5.987306   1.038448   0.000000
 Stoichiometry    C7H8BrFO
 Framework group  C1[X(C7H8BrFO)]
 Deg. of freedom    48
 Full point group                 C1      NOp   1
 Largest Abelian subgroup         C1      NOp   1
 Largest concise Abelian subgroup C1      NOp   1
                         Standard orientation:                         
 ---------------------------------------------------------------------
 Center     Atomic      Atomic             Coordinates (Angstroms)
 Number     Number       Type             X           Y           Z
 ---------------------------------------------------------------------
      1          6           0       -1.171608   -0.872698   -0.007633
      2          6           0       -1.806153   -0.696725   -1.149380
      3          6           0       -3.084501   -0.347936   -1.149992
      4          6           0       -3.727135   -0.175463    0.001233
      5          6           0       -3.087089   -0.352961    1.152878
      6          6           0       -1.809172   -0.701633    1.153489
      7          9           0        0.171292   -1.239099   -0.006991
      8          1           0       -1.313816   -0.828861   -2.031359
      9          1           0       -3.574860   -0.211950   -2.032303
     10          1           0       -4.709847    0.092663    0.000763
     11          1           0       -3.579348   -0.220846    2.034719
     12          1           0       -1.312686   -0.839282    2.032292
     13          8           0        2.872971   -1.976247   -0.000811
     14          6           0        4.032583   -2.292649    0.003243
     15          1           0        4.758174   -1.573647    0.006396
     16          1           0        4.292461   -3.280527    0.002149
     17          1           0        1.152783    0.840896   -0.001369
     18         35           0        1.248005    1.874966    0.001003
 ---------------------------------------------------------------------
 Rotational constants (GHZ):           0.9228271           0.4526246           0.3361125
 Standard basis: 6-311++G(d,p) (5D, 7F)
 There are   314 symmetry adapted cartesian basis functions of A   symmetry.
 There are   302 symmetry adapted basis functions of A   symmetry.
   302 basis functions,   490 primitive gaussians,   314 cartesian basis functions
    51 alpha electrons       51 beta electrons
       nuclear repulsion energy       700.7780639102 Hartrees.
 NAtoms=   18 NActive=   18 NUniq=   18 SFac= 1.00D+00 NAtFMM=   60 NAOKFM=F Big=F
 Integral buffers will be    131072 words long.
 Raffenetti 2 integral format.
 Two-electron integral symmetry is turned on.
 One-electron integrals computed using PRISM.
 NBasis=   302 RedAO= T EigKep=  5.02D-06  NBF=   302
 NBsUse=   301 1.00D-06 EigRej=  6.88D-07 NBFU=   301
 Initial guess from the checkpoint file:  "model_H1.chk"
 B after Tr=     0.000000   -0.000000    0.000000
         Rot=    0.999982   -0.000145    0.000135    0.006070 Ang=  -0.70 deg.
 ExpMin= 3.50D-02 ExpMax= 4.40D+05 ExpMxC= 1.51D+04 IAcc=3 IRadAn=         5 AccDes= 0.00D+00
 Harris functional with IExCor= 1009 and IRadAn=       5 diagonalized for initial guess.
 HarFok:  IExCor= 1009 AccDes= 0.00D+00 IRadAn=         5 IDoV= 1 UseB2=F ITyADJ=14
 ICtDFT=  3500011 ScaDFX=  1.000000  1.000000  1.000000  1.000000
 FoFCou: FMM=F IPFlag=           0 FMFlag=      100000 FMFlg1=           0
         NFxFlg=           0 DoJE=T BraDBF=F KetDBF=T FulRan=T
         wScrn=  0.000000 ICntrl=       500 IOpCl=  0 I1Cent=   200000004 NGrid=           0
         NMat0=    1 NMatS0=      1 NMatT0=    0 NMatD0=    1 NMtDS0=    0 NMtDT0=    0
 Petite list used in FoFCou.
 Requested convergence on RMS density matrix=1.00D-08 within 128 cycles.
 Requested convergence on MAX density matrix=1.00D-06.
 Requested convergence on             energy=1.00D-06.
 No special actions if energy rises.
 SCF Done:  E(RM062X) =  -3020.50274492     A.U. after   14 cycles
            NFock= 14  Conv=0.65D-08     -V/T= 2.0006
 Calling FoFJK, ICntrl=      2127 FMM=F ISym2X=0 I1Cent= 0 IOpClX= 0 NMat=1 NMatS=1 NMatT=0.
 ***** Axes restored to original set *****
 -------------------------------------------------------------------
 Center     Atomic                   Forces (Hartrees/Bohr)
 Number     Number              X              Y              Z
 -------------------------------------------------------------------
      1        6          -0.056341897   -0.000372506   -0.051733200
      2        6          -0.034479524   -0.000147848    0.014185782
      3        6           0.009246078    0.000225149    0.016142330
      4        6           0.017886954   -0.000215263    0.012733016
      5        6           0.016556828    0.000222275   -0.003828036
      6        6          -0.019130148   -0.000139148   -0.026265581
      7        9           0.026533656    0.000492772    0.015446051
      8        1          -0.048577359    0.000035795    0.025497979
      9        1          -0.001194167    0.000035969    0.054293922
     10        1           0.047206499    0.000045386    0.027296410
     11        1           0.046476750    0.000034573   -0.028253522
     12        1          -0.002536015    0.000036605   -0.054557368
     13        8           0.004056878    0.000445508    0.002295743
     14        6           0.055737863    0.000313957    0.032513143
     15        1          -0.030392554    0.053073373   -0.017691088
     16        1          -0.030298979   -0.053125591   -0.017635461
     17        1          -0.085956127   -0.555032374   -0.049595323
     18       35           0.085205264    0.554071366    0.049155202
 -------------------------------------------------------------------
 Cartesian Forces:  Max     0.555032374 RMS     0.111563117
 -----------------------------------------------------------------------------------------------
                       Internal Coordinate Forces (Hartree/Bohr or radian)
  Cent   Atom   N1       Length/X         N2         Alpha/Y        N3         Beta/Z          J
 -----------------------------------------------------------------------------------------------
      1  C 
      2  C        1   0.035832(     1)
      3  C        2   0.096527(     2)      1   0.076581(    18)
      4  C        3   0.128624(     3)      2   0.223019(    19)      1   0.000295(    34)     0
      5  C        4   0.114317(     4)      3   0.249665(    20)      2   0.000090(    35)     0
      6  C        5   0.060599(     5)      4   0.147750(    21)      3  -0.000242(    36)     0
      7  F        1  -0.028796(     6)      2  -0.000286(    22)      3   0.001400(    37)     0
      8  H        2   0.054818(     7)      3   0.004248(    23)      4   0.000060(    38)     0
      9  H        3   0.054294(     8)      4   0.002298(    24)      5   0.000060(    39)     0
     10  H        4   0.054530(     9)      5   0.000070(    25)      6   0.000076(    40)     0
     11  H        5   0.054377(    10)      6  -0.002367(    26)      1   0.000058(    41)     0
     12  H        6   0.054574(    11)      1  -0.004134(    27)      2   0.000061(    42)     0
     13  O        7   0.001035(    12)      1   0.000007(    28)      3  -0.000007(    43)     0
     14  C       13   0.005697(    13)      1   0.000099(    29)      2  -0.000001(    44)     0
     15  H       14   0.063546(    14)      1   0.007564(    30)      2   0.000117(    45)     0
     16  H       14   0.063537(    15)      1   0.007331(    31)      2  -0.000115(    46)     0
     17  H        7  -0.000795(    16)      1   0.003156(    32)      2   0.000088(    47)     0
     18  Br      17   0.562735(    17)      7  -0.001294(    33)      1   0.000022(    48)     0
 -----------------------------------------------------------------------------------------------
 Internal  Forces:  Max     0.562735119 RMS     0.104511986

 GradGradGradGradGradGradGradGradGradGradGradGradGradGradGradGradGradGrad
 Berny optimization.
 Search for a local minimum.
 Step number   2 out of a maximum of   27
 All quantities printed in internal units (Hartrees-Bohrs-Radians)
 Update second derivatives using D2CorN and points    1    2
 DE= -2.66D-01 DEPred=-2.97D-01 R= 8.97D-01
 TightC=F SS=  1.41D+00  RLast= 3.00D-01 DXNew= 5.0454D-01 9.0000D-01
 Trust test= 8.97D-01 RLast= 3.00D-01 DXMaxT set to 5.05D-01
 The second derivative matrix:
                          d1        d2        d3        d4        d5
           d1           0.95471
           d2          -0.05265   0.95594
           d3          -0.33267   0.34034   1.35009
           d4          -0.27843   0.05835   0.34111   0.95707
           d5           0.05721  -0.27803  -0.33149  -0.05131   0.95614
           d6           0.00044   0.00067   0.00051   0.00078   0.00061
           d7           0.00143   0.00186   0.00286   0.00219   0.00194
           d8           0.00143   0.00186   0.00286   0.00219   0.00194
           d9           0.00145   0.00188   0.00289   0.00221   0.00196
           d10          0.00141   0.00184   0.00283   0.00216   0.00192
           d11          0.00148   0.00192   0.00294   0.00226   0.00200
           d12          0.00002   0.00003   0.00005   0.00004   0.00003
           d13          0.00053   0.00073   0.00093   0.00086   0.00073
           d14          0.00155   0.00200   0.00313   0.00236   0.00210
           d15          0.00155   0.00200   0.00313   0.00235   0.00210
           d16          0.00012   0.00017   0.00020   0.00020   0.00017
           d17          0.03564   0.04859   0.06243   0.05711   0.04858
                          d6        d7        d8        d9        d10
           d6           0.45548
           d7           0.00061   0.47802
           d8           0.00060   0.00114   0.47802
           d9           0.00059   0.00115   0.00116   0.47805
           d10          0.00060   0.00112   0.00112   0.00114   0.47799
           d11          0.00058   0.00119   0.00119   0.00120   0.00117
           d12          0.00002   0.00002   0.00002   0.00002   0.00002
           d13         -0.00010   0.00052   0.00051   0.00052   0.00051
           d14          0.00074   0.00121   0.00121   0.00123   0.00119
           d15          0.00074   0.00120   0.00121   0.00122   0.00119
           d16         -0.00006   0.00013   0.00013   0.00013   0.00013
           d17         -0.00664   0.03439   0.03418   0.03443   0.03406
                          d11       d12       d13       d14       d15
           d11          0.47812
           d12          0.00002   0.02330
           d13          0.00052   0.00001   1.04833
           d14          0.00126   0.00002   0.00058   0.47815
           d15          0.00126   0.00002   0.00058   0.00127   0.47815
           d16          0.00013   0.00000   0.00001   0.00015   0.00015
           d17          0.03474   0.00075   0.00662   0.03879   0.03876
                          d16       d17
           d16          0.02721
           d17          0.00087   2.24402
 ITU=  1  0
 Linear search step of   0.600 exceeds DXMaxT=   0.505 but not scaled.
 Quartic linear search produced a step of  2.00000.
 Variable       Old X    -DE/DX   Delta X   Delta X   Delta X     New X
                                 (Linear)    (Quad)   (Total)
    d1        2.49071   0.03583   0.06814   0.00000   0.06814   2.55885
    d2        2.50403   0.09653   0.09478   0.00000   0.09478   2.59881
    d3        2.51273   0.12862   0.11217   0.00000   0.11217   2.62489
    d4        2.51230   0.11432   0.11132   0.00000   0.11132   2.62363
    d5        2.50319   0.06060   0.09309   0.00000   0.09309   2.59628
    d6        2.63048  -0.02880  -0.03028   0.00000  -0.03028   2.60020
    d7        1.92506   0.05482   0.07066   0.00000   0.07066   1.99572
    d8        1.92475   0.05429   0.07006   0.00000   0.07006   1.99481
    d9        1.92494   0.05453   0.07043   0.00000   0.07043   1.99537
   d10        1.92476   0.05438   0.07006   0.00000   0.07006   1.99481
   d11        1.92506   0.05457   0.07066   0.00000   0.07066   1.99572
   d12        5.29207   0.00104   0.00168   0.00000   0.00168   5.29376
   d13        2.27147   0.00570   0.00759   0.00000   0.00759   2.27906
   d14        1.93035   0.06355   0.08125   0.00000   0.08125   2.01160
   d15        1.93034   0.06354   0.08122   0.00000   0.08122   2.01156
   d16        4.34626  -0.00080  -0.00022   0.00000  -0.00022   4.34605
   d17        1.96238   0.56274   0.52326   0.00000   0.52326   2.48564
         Item               Value     Threshold  Converged?
 Maximum Force            0.562735     0.000450     NO 
 RMS     Force            0.150364     0.000300     NO 
 Maximum Displacement     0.523257     0.001800     NO 
 RMS     Displacement     0.145521     0.001200     NO 
 Predicted change in Energy=-6.802414D-03
 GradGradGradGradGradGradGradGradGradGradGradGradGradGradGradGradGradGrad

 ---------------------------------------------------------------------------------------------------
                            Z-MATRIX (ANGSTROMS AND DEGREES)
   CD    Cent   Atom    N1       Length/X        N2       Alpha/Y        N3        Beta/Z          J
 ---------------------------------------------------------------------------------------------------
      1      1  C 
      2      2  C        1   1.354086(     1)
      3      3  C        2   1.375230(     2)      1  120.000(    18)
      4      4  C        3   1.389034(     3)      2  120.000(    19)      1    0.000(    34)      0
      5      5  C        4   1.388364(     4)      3  120.000(    20)      2    0.000(    35)      0
      6      6  C        5   1.373891(     5)      4  120.000(    21)      3    0.000(    36)      0
      7      7  F        1   1.375965(     6)      2  120.000(    22)      3  180.000(    37)      0
      8      8  H        2   1.056088(     7)      3  120.000(    23)      4  180.000(    38)      0
      9      9  H        3   1.055609(     8)      4  120.000(    24)      5  180.000(    39)      0
     10     10  H        4   1.055902(     9)      5  120.000(    25)      6  180.000(    40)      0
     11     11  H        5   1.055610(    10)      6  120.000(    26)      1  180.000(    41)      0
     12     12  H        6   1.056087(    11)      1  120.000(    27)      2  180.000(    42)      0
     13     13  O        7   2.801336(    12)      1  179.900(    28)      3  180.000(    43)      0
     14     14  C       13   1.206028(    13)      1  179.900(    29)      2  180.000(    44)      0
     15     15  H       14   1.064491(    14)      1  120.000(    30)      2   90.000(    45)      0
     16     16  H       14   1.064470(    15)      1  120.000(    31)      2  -90.000(    46)      0
     17     17  H        7   2.299828(    16)      1  100.000(    32)      2   90.000(    47)      0
     18     18  Br      17   1.315344(    17)      7  160.000(    33)      1    0.000(    48)      0
 ---------------------------------------------------------------------------------------------------
                         Z-Matrix orientation:                         
 ---------------------------------------------------------------------
 Center     Atomic      Atomic             Coordinates (Angstroms)
 Number     Number       Type             X           Y           Z
 ---------------------------------------------------------------------
      1          6           0        0.000000    0.000000    0.000000
      2          6           0        0.000000    0.000000    1.354086
      3          6           0        1.190984    0.000000    2.041701
      4          6           0        2.393923    0.000000    1.347184
      5          6           0        2.393923    0.000000   -0.041179
      6          6           0        1.204099    0.000000   -0.728125
      7          9           0       -1.191620   -0.000000   -0.687982
      8          1           0       -0.914599   -0.000000    1.882130
      9          1           0        1.190984   -0.000000    3.097311
     10          1           0        3.308362   -0.000000    1.875135
     11          1           0        3.308108   -0.000000   -0.568984
     12          1           0        1.182691   -0.000000   -1.783995
     13          8           0       -3.615200   -0.000000   -2.092882
     14          6           0       -4.657888   -0.000000   -2.698939
     15          1           0       -5.118410    0.921876   -2.965781
     16          1           0       -5.118401   -0.921858   -2.965776
     17          1           0       -1.537477    2.264888   -0.887663
     18         35           0       -1.339671    3.560249   -0.773459
 ---------------------------------------------------------------------
                    Distance matrix (angstroms):
                    1          2          3          4          5
     1  C    0.000000
     2  C    1.354086   0.000000
     3  C    2.363681   1.375230   0.000000
     4  C    2.746957   2.393933   1.389034   0.000000
     5  C    2.394278   2.770855   2.405297   1.388364   0.000000
     6  C    1.407132   2.405298   2.769857   2.392193   1.373891
     7  F    1.375965   2.364319   3.623255   4.122866   3.643416
     8  H    2.092583   1.056088   2.111621   3.351490   3.826936
     9  H    3.318400   2.111226   1.055609   2.123677   3.361128
    10  H    3.802813   3.349142   2.123919   1.055902   2.123313
    11  H    3.356684   3.826458   3.361234   2.123072   1.055610
    12  H    2.140419   3.353552   3.825705   3.357286   2.122379
    13  O    4.177299   4.995124   6.339889   6.924134   6.349729
    14  C    5.383326   6.174377   7.528810   8.130139   7.536029
    15  H    5.986972   6.760860   8.107601   8.711296   8.114081
    16  H    5.986959   6.760847   8.107589   8.711284   8.114068
    17  H    2.877760   3.538219   4.599499   5.057684   4.615427
    18  Br   3.881795   4.358502   5.196606   5.577834   5.210694
                    6          7          8          9         10
     6  C    0.000000
     7  F    2.396056   0.000000
     8  H    3.361891   2.584999   0.000000
     9  H    3.825458   4.472723   2.431079   0.000000
    10  H    3.347370   5.178746   4.222966   2.444790   0.000000
    11  H    2.110019   4.501302   4.882542   4.233667   2.444120
    12  H    1.056087   2.615071   4.223635   4.881313   4.231750
    13  O    5.008813   2.801336   4.805619   7.073720   7.980030
    14  C    6.184416   4.007363   5.915945   8.234429   9.186038
    15  H    6.769866   4.632267   6.482602   8.798829   9.761906
    16  H    6.769853   4.632253   6.482589   8.798817   9.761894
    17  H    3.559693   2.299828   3.631728   5.334251   6.020376
    18  Br   4.375865   3.564351   4.461862   5.836304   6.426090
                   11         12         13         14         15
    11  H    0.000000
    12  H    2.448194   0.000000
    13  O    7.089039   4.807824   0.000000
    14  C    8.245836   5.911809   1.206028   0.000000
    15  H    8.809126   6.476909   1.967599   1.064491   0.000000
    16  H    8.809114   6.476896   1.967581   1.064470   1.843734
    17  H    5.358262   3.651362   3.301395   4.259977   4.352625
    18  Br   5.858245   4.478712   4.426543   5.233872   5.103544
                   16         17         18
    16  H    0.000000
    17  H    5.224646   0.000000
    18  Br   6.258940   1.315344   0.000000
 Stoichiometry    C7H8BrFO
 Framework group  C1[X(C7H8BrFO)]
 Deg. of freedom    48
 Full point group                 C1      NOp   1
 Largest Abelian subgroup         C1      NOp   1
 Largest concise Abelian subgroup C1      NOp   1
                         Standard orientation:                         
 ---------------------------------------------------------------------
 Center     Atomic      Atomic             Coordinates (Angstroms)
 Number     Number       Type             X           Y           Z
 ---------------------------------------------------------------------
      1          6           0       -1.193089   -0.925751   -0.020105
      2          6           0       -1.832602   -0.716686   -1.195207
      3          6           0       -3.143147   -0.299908   -1.200182
      4          6           0       -3.810829   -0.093408    0.000224
      5          6           0       -3.155128   -0.307764    1.205072
      6          6           0       -1.845859   -0.724136    1.210042
      7          9           0        0.118157   -1.342751   -0.015128
      8          1           0       -1.324960   -0.873690   -2.107880
      9          1           0       -3.641694   -0.136927   -2.116260
     10          1           0       -4.817067    0.226595   -0.003596
     11          1           0       -3.662539   -0.150832    2.117332
     12          1           0       -1.329468   -0.892741    2.115710
     13          8           0        2.787703   -2.191740   -0.000105
     14          6           0        3.936982   -2.557249    0.007774
     15          1           0        4.723557   -1.840038    0.014792
     16          1           0        4.164816   -3.597050    0.006270
     17          1           0        1.185092    0.694579   -0.003215
     18         35           0        1.359979    1.998234    0.001946
 ---------------------------------------------------------------------
 Rotational constants (GHZ):           0.8025327           0.4387543           0.3145509
 Standard basis: 6-311++G(d,p) (5D, 7F)
 There are   314 symmetry adapted cartesian basis functions of A   symmetry.
 There are   302 symmetry adapted basis functions of A   symmetry.
   302 basis functions,   490 primitive gaussians,   314 cartesian basis functions
    51 alpha electrons       51 beta electrons
       nuclear repulsion energy       673.2149067760 Hartrees.
 NAtoms=   18 NActive=   18 NUniq=   18 SFac= 1.00D+00 NAtFMM=   60 NAOKFM=F Big=F
 Integral buffers will be    131072 words long.
 Raffenetti 2 integral format.
 Two-electron integral symmetry is turned on.
 One-electron integrals computed using PRISM.
 NBasis=   302 RedAO= T EigKep=  7.14D-06  NBF=   302
 NBsUse=   301 1.00D-06 EigRej=  9.91D-07 NBFU=   301
 Initial guess from the checkpoint file:  "model_H1.chk"
 B after Tr=     0.000000   -0.000000    0.000000
         Rot=    0.999885   -0.000193    0.000292    0.015188 Ang=  -1.74 deg.
 ExpMin= 3.50D-02 ExpMax= 4.40D+05 ExpMxC= 1.51D+04 IAcc=3 IRadAn=         5 AccDes= 0.00D+00
 Harris functional with IExCor= 1009 and IRadAn=       5 diagonalized for initial guess.
 HarFok:  IExCor= 1009 AccDes= 0.00D+00 IRadAn=         5 IDoV= 1 UseB2=F ITyADJ=14
 ICtDFT=  3500011 ScaDFX=  1.000000  1.000000  1.000000  1.000000
 FoFCou: FMM=F IPFlag=           0 FMFlag=      100000 FMFlg1=           0
         NFxFlg=           0 DoJE=T BraDBF=F KetDBF=T FulRan=T
         wScrn=  0.000000 ICntrl=       500 IOpCl=  0 I1Cent=   200000004 NGrid=           0
         NMat0=    1 NMatS0=      1 NMatT0=    0 NMatD0=    1 NMtDS0=    0 NMtDT0=    0
 Petite list used in FoFCou.
 Requested convergence on RMS density matrix=1.00D-08 within 128 cycles.
 Requested convergence on MAX density matrix=1.00D-06.
 Requested convergence on             energy=1.00D-06.
 No special actions if energy rises.
 SCF Done:  E(RM062X) =  -3020.68524894     A.U. after   15 cycles
            NFock= 15  Conv=0.44D-08     -V/T= 2.0013
 Calling FoFJK, ICntrl=      2127 FMM=F ISym2X=0 I1Cent= 0 IOpClX= 0 NMat=1 NMatS=1 NMatT=0.
 ***** Axes restored to original set *****
 -------------------------------------------------------------------
 Center     Atomic                   Forces (Hartrees/Bohr)
 Number     Number              X              Y              Z
 -------------------------------------------------------------------
      1        6           0.005192095   -0.000460009   -0.039594590
      2        6          -0.007180651   -0.000097776    0.009652905
      3        6           0.018667918    0.000211430   -0.015391588
      4        6          -0.014766795   -0.000195805   -0.002003820
      5        6          -0.009874792    0.000209421    0.013389687
      6        6          -0.024438907   -0.000079815    0.014227142
      7        9           0.020839551    0.001418518    0.012341654
      8        1          -0.019043350    0.000028408    0.008625843
      9        1          -0.000663519    0.000037787    0.020390569
     10        1           0.017584737    0.000042865    0.010250010
     11        1           0.017487758    0.000031076   -0.010956682
     12        1          -0.002341404    0.000026845   -0.020074920
     13        8          -0.006574557    0.000477027   -0.003880542
     14        6           0.035128230    0.000332944    0.020579315
     15        1          -0.014724630    0.020519876   -0.008607882
     16        1          -0.014621668   -0.020581177   -0.008546397
     17        1          -0.011780646   -0.072437333   -0.006811851
     18       35           0.011110628    0.070515718    0.006411144
 -------------------------------------------------------------------
 Cartesian Forces:  Max     0.072437333 RMS     0.019255655
 -----------------------------------------------------------------------------------------------
                       Internal Coordinate Forces (Hartree/Bohr or radian)
  Cent   Atom   N1       Length/X         N2         Alpha/Y        N3         Beta/Z          J
 -----------------------------------------------------------------------------------------------
      1  C 
      2  C        1   0.026867(     1)
      3  C        2   0.005077(     2)      1  -0.064086(    18)
      4  C        3  -0.016604(     3)      2  -0.086335(    19)      1   0.000493(    34)     0
      5  C        4   0.004657(     4)      3  -0.073374(    20)      2   0.000268(    35)     0
      6  C        5   0.027388(     5)      4  -0.021284(    21)      3  -0.000144(    36)     0
      7  F        1  -0.022524(     6)      2  -0.000678(    22)      3   0.000992(    37)     0
      8  H        2   0.020805(     7)      3   0.004094(    23)      4   0.000049(    38)     0
      9  H        3   0.020391(     8)      4   0.001324(    24)      5   0.000065(    39)     0
     10  H        4   0.020354(     9)      5   0.000168(    25)      6   0.000074(    40)     0
     11  H        5   0.020623(    10)      6  -0.001486(    26)      1   0.000054(    41)     0
     12  H        6   0.020118(    11)      1  -0.003860(    27)      2   0.000046(    42)     0
     13  O        7   0.000914(    12)      1   0.000016(    28)      3  -0.000007(    43)     0
     14  C       13  -0.006720(    13)      1   0.000097(    29)      2  -0.000001(    44)     0
     15  H       14   0.026299(    14)      1   0.009074(    30)      2   0.000114(    45)     0
     16  H       14   0.026292(    15)      1   0.008804(    31)      2  -0.000112(    46)     0
     17  H        7  -0.001757(    16)      1   0.003827(    32)      2   0.000059(    47)     0
     18  Br      17   0.071672(    17)      7  -0.000964(    33)      1   0.000003(    48)     0
 -----------------------------------------------------------------------------------------------
 Internal  Forces:  Max     0.086334945 RMS     0.024398894

 GradGradGradGradGradGradGradGradGradGradGradGradGradGradGradGradGradGrad
 Berny optimization.
 Search for a local minimum.
 Step number   3 out of a maximum of   27
 All quantities printed in internal units (Hartrees-Bohrs-Radians)
 Update second derivatives using D2CorN and points    3
 The second derivative matrix:
                          d1        d2        d3        d4        d5
           d1           0.95471
           d2          -0.05265   0.95594
           d3          -0.33267   0.34034   1.35009
           d4          -0.27843   0.05835   0.34111   0.95707
           d5           0.05721  -0.27803  -0.33149  -0.05131   0.95614
           d6           0.00044   0.00067   0.00051   0.00078   0.00061
           d7           0.00143   0.00186   0.00286   0.00219   0.00194
           d8           0.00143   0.00186   0.00286   0.00219   0.00194
           d9           0.00145   0.00188   0.00289   0.00221   0.00196
           d10          0.00141   0.00184   0.00283   0.00216   0.00192
           d11          0.00148   0.00192   0.00294   0.00226   0.00200
           d12          0.00002   0.00003   0.00005   0.00004   0.00003
           d13          0.00053   0.00073   0.00093   0.00086   0.00073
           d14          0.00155   0.00200   0.00313   0.00236   0.00210
           d15          0.00155   0.00200   0.00313   0.00235   0.00210
           d16          0.00012   0.00017   0.00020   0.00020   0.00017
           d17          0.03564   0.04859   0.06243   0.05711   0.04858
                          d6        d7        d8        d9        d10
           d6           0.45548
           d7           0.00061   0.47802
           d8           0.00060   0.00114   0.47802
           d9           0.00059   0.00115   0.00116   0.47805
           d10          0.00060   0.00112   0.00112   0.00114   0.47799
           d11          0.00058   0.00119   0.00119   0.00120   0.00117
           d12          0.00002   0.00002   0.00002   0.00002   0.00002
           d13         -0.00010   0.00052   0.00051   0.00052   0.00051
           d14          0.00074   0.00121   0.00121   0.00123   0.00119
           d15          0.00074   0.00120   0.00121   0.00122   0.00119
           d16         -0.00006   0.00013   0.00013   0.00013   0.00013
           d17         -0.00664   0.03439   0.03418   0.03443   0.03406
                          d11       d12       d13       d14       d15
           d11          0.47812
           d12          0.00002   0.02330
           d13          0.00052   0.00001   1.04833
           d14          0.00126   0.00002   0.00058   0.47815
           d15          0.00126   0.00002   0.00058   0.00127   0.47815
           d16          0.00013   0.00000   0.00001   0.00015   0.00015
           d17          0.03474   0.00075   0.00662   0.03879   0.03876
                          d16       d17
           d16          0.02721
           d17          0.00087   2.24402
 ITU=  0  1  0
     Eigenvalues ---    0.02330   0.02721   0.45528   0.47685   0.47688
     Eigenvalues ---    0.47688   0.47688   0.47688   0.47688   0.48018
     Eigenvalues ---    0.67177   0.67193   0.67950   1.04830   1.12433
     Eigenvalues ---    2.00875   2.26700
 RFO step:  Lambda=-1.62473436D-02 EMin= 2.33006363D-02
 Quartic linear search produced a step of  0.50192.
 Variable       Old X    -DE/DX   Delta X   Delta X   Delta X     New X
                                 (Linear)    (Quad)   (Total)
    d1        2.55885   0.02687   0.03420   0.03327   0.06747   2.62632
    d2        2.59881   0.00508   0.04757   0.00682   0.05439   2.65320
    d3        2.62489  -0.01660   0.05630  -0.02853   0.02776   2.65266
    d4        2.62363   0.00466   0.05587   0.00259   0.05846   2.68209
    d5        2.59628   0.02739   0.04672   0.02958   0.07631   2.67258
    d6        2.60020  -0.02252  -0.01520  -0.06069  -0.07589   2.52430
    d7        1.99572   0.02080   0.03547   0.04984   0.08530   2.08102
    d8        1.99481   0.02039   0.03516   0.04874   0.08390   2.07872
    d9        1.99537   0.02035   0.03535   0.04860   0.08395   2.07932
   d10        1.99481   0.02062   0.03516   0.04938   0.08454   2.07935
   d11        1.99572   0.02012   0.03547   0.04796   0.08343   2.07914
   d12        5.29376   0.00091   0.00084   0.03421   0.03506   5.32882
   d13        2.27906  -0.00672   0.00381  -0.01019  -0.00638   2.27269
   d14        2.01160   0.02630   0.04078   0.06409   0.10487   2.11646
   d15        2.01156   0.02629   0.04077   0.06406   0.10483   2.11638
   d16        4.34605  -0.00176  -0.00011  -0.05402  -0.05413   4.29192
   d17        2.48564   0.07167   0.26263  -0.01610   0.24654   2.73218
         Item               Value     Threshold  Converged?
 Maximum Force            0.071672     0.000450     NO 
 RMS     Force            0.025396     0.000300     NO 
 Maximum Displacement     0.246537     0.001800     NO 
 RMS     Displacement     0.092583     0.001200     NO 
 Predicted change in Energy=-6.132097D-02
 GradGradGradGradGradGradGradGradGradGradGradGradGradGradGradGradGradGrad

 ---------------------------------------------------------------------------------------------------
                            Z-MATRIX (ANGSTROMS AND DEGREES)
[...]
                    Distance matrix (angstroms):
                    1          2          3          4          5
     1  C    0.000000
     2  C    1.379547   0.000000
     3  C    2.393126   1.383795   0.000000
     4  C    2.767277   2.399925   1.387398   0.000000
     5  C    2.399981   2.776450   2.409005   1.394278   0.000000
     6  C    1.388231   2.409062   2.786636   2.417571   1.397292
     7  F    1.347097   2.361399   3.623303   4.114371   3.626556
     8  H    2.138327   1.083664   2.142145   3.382378   3.860110
     9  H    3.374223   2.141423   1.082792   2.144662   3.390787
    10  H    3.850367   3.381268   2.144912   1.083093   2.151101
    11  H    3.383888   3.859160   3.389616   2.150788   1.082715
    12  H    2.145586   3.386381   3.869556   3.405331   2.164372
    13  O    4.375883   5.205850   6.560139   7.143149   6.558407
    14  C    5.574900   6.379231   7.742578   8.342162   7.739475
    15  H    6.200828   6.987753   8.343191   8.945194   8.339832
    16  H    6.200855   6.987779   8.343217   8.945219   8.339858
    17  H    2.683096   3.385733   4.474785   4.932438   4.477140
    18  Br   3.765780   4.254876   5.097032   5.471902   5.099267
                    6          7          8          9         10
     6  C    0.000000
     7  F    2.356822   0.000000
     8  H    3.388386   2.604937   0.000000
     9  H    3.869424   4.499475   2.467024   0.000000
    10  H    3.399215   5.197463   4.276391   2.470341   0.000000
    11  H    2.153500   4.505688   4.942822   4.284388   2.477182
    12  H    1.083003   2.593797   4.275838   4.952327   4.302892
    13  O    5.191456   3.028787   5.003809   7.310392   8.226242
    14  C    6.362960   4.227805   6.110576   8.465154   9.425255
    15  H    6.971260   4.874256   6.699022   9.050929  10.022754
    16  H    6.971286   4.874285   6.699047   9.050954  10.022779
    17  H    3.380718   2.098257   3.503975   5.247397   5.933277
    18  Br   4.251872   3.471507   4.380266   5.763967   6.346701
                   11         12         13         14         15
    11  H    0.000000
    12  H    2.496599   0.000000
    13  O    7.309679   4.973415   0.000000
    14  C    8.462254   6.076709   1.199018   0.000000
    15  H    9.047590   6.664849   1.994736   1.103647   0.000000
    16  H    9.047615   6.664875   1.994773   1.103690   1.911610
    17  H    5.252484   3.492256   3.371811   4.381341   4.552805
    18  Br   5.768748   4.372767   4.529516   5.379300   5.297128
                   16         17         18
    16  H    0.000000
    17  H    5.350562   0.000000
    18  Br   6.428425   1.424803   0.000000
 Stoichiometry    C7H8BrFO
 Framework group  C1[X(C7H8BrFO)]
 Deg. of freedom    48
 Full point group                 C1      NOp   1
 Largest Abelian subgroup         C1      NOp   1
 Largest concise Abelian subgroup C1      NOp   1
                         Standard orientation:                         
 ---------------------------------------------------------------------
 Center     Atomic      Atomic             Coordinates (Angstroms)
 Number     Number       Type             X           Y           Z
 ---------------------------------------------------------------------
      1          6           0       -1.117194   -0.970624   -0.006840
      2          6           0       -1.786340   -0.801940   -1.201386
      3          6           0       -3.129538   -0.469212   -1.201037
      4          6           0       -3.803280   -0.305263    0.000656
      5          6           0       -3.126989   -0.475748    1.207957
      6          6           0       -1.770690   -0.811720    1.207606
      7          9           0        0.190383   -1.294527   -0.007179
      8          1           0       -1.260096   -0.929997   -2.140000
      9          1           0       -3.654744   -0.336814   -2.138624
     10          1           0       -4.854598   -0.044838    0.000929
     11          1           0       -3.652771   -0.347803    2.145749
     12          1           0       -1.229430   -0.948072    2.135689
     13          8           0        3.130308   -2.022797   -0.002655
     14          6           0        4.294144   -2.311102    0.000584
     15          1           0        5.059592   -1.516044    0.003593
     16          1           0        4.599975   -3.371572   -0.000955
     17          1           0        1.040904    0.623616   -0.002355
     18         35           0        1.138131    2.045094    0.001045
 ---------------------------------------------------------------------
 Rotational constants (GHZ):           0.8099222           0.4312892           0.3120462

 **********************************************************************

            Population analysis using the SCF Density.

 **********************************************************************

 Orbital symmetries:
       Occupied  (A) (A) (A) (A) (A) (A) (A) (A) (A) (A) (A) (A)
                 (A) (A) (A) (A) (A) (A) (A) (A) (A) (A) (A) (A)
                 (A) (A) (A) (A) (A) (A) (A) (A) (A) (A) (A) (A)
                 (A) (A) (A) (A) (A) (A) (A) (A) (A) (A) (A) (A)
                 (A) (A) (A)
       Virtual   (A) (A) (A) (A) (A) (A) (A) (A) (A) (A) (A) (A)
                 (A) (A) (A) (A) (A) (A) (A) (A) (A) (A) (A) (A)
                 (A) (A) (A) (A) (A) (A) (A) (A) (A) (A) (A) (A)
                 (A) (A) (A) (A) (A) (A) (A) (A) (A) (A) (A) (A)
                 (A) (A) (A) (A) (A) (A) (A) (A) (A) (A) (A) (A)
                 (A) (A) (A) (A) (A) (A) (A) (A) (A) (A) (A) (A)
                 (A) (A) (A) (A) (A) (A) (A) (A) (A) (A) (A) (A)
                 (A) (A) (A) (A) (A) (A) (A) (A) (A) (A) (A) (A)
                 (A) (A) (A) (A) (A) (A) (A) (A) (A) (A) (A) (A)
                 (A) (A) (A) (A) (A) (A) (A) (A) (A) (A) (A) (A)
                 (A) (A) (A) (A) (A) (A) (A) (A) (A) (A) (A) (A)
                 (A) (A) (A) (A) (A) (A) (A) (A) (A) (A) (A) (A)
                 (A) (A) (A) (A) (A) (A) (A) (A) (A) (A) (A) (A)
                 (A) (A) (A) (A) (A) (A) (A) (A) (A) (A) (A) (A)
                 (A) (A) (A) (A) (A) (A) (A) (A) (A) (A) (A) (A)
                 (A) (A) (A) (A) (A) (A) (A) (A) (A) (A) (A) (A)
                 (A) (A) (A) (A) (A) (A) (A) (A) (A) (A) (A) (A)
                 (A) (A) (A) (A) (A) (A) (A) (A) (A) (A) (A) (A)
                 (A) (A) (A) (A) (A) (A) (A) (A) (A) (A) (A) (A)
                 (A) (A) (A) (A) (A) (A) (A) (A) (A) (A) (A) (A)
                 (A) (A) (A) (A) (A) (A) (A) (A) (A) (A) (A)
 The electronic state is 1-A.
 Alpha  occ. eigenvalues -- -485.32430 -63.31656 -57.14382 -57.14154 -57.14153
 Alpha  occ. eigenvalues --  -25.26073 -19.64399 -10.63953 -10.63482 -10.55868
 Alpha  occ. eigenvalues --  -10.55661 -10.55659 -10.55437 -10.55079  -9.00369
 Alpha  occ. eigenvalues --   -6.83119  -6.82171  -6.82167  -2.86297  -2.85925
 Alpha  occ. eigenvalues --   -2.85923  -2.85100  -2.85100  -1.38048  -1.19284
 Alpha  occ. eigenvalues --   -0.97734  -0.86381  -0.86159  -0.85537  -0.72499
 Alpha  occ. eigenvalues --   -0.71659  -0.70923  -0.63695  -0.58561  -0.58204
 Alpha  occ. eigenvalues --   -0.58117  -0.57853  -0.53581  -0.52352  -0.50529
 Alpha  occ. eigenvalues --   -0.48859  -0.48088  -0.47627  -0.44371  -0.43842
 Alpha  occ. eigenvalues --   -0.41539  -0.34957  -0.34927  -0.34623  -0.32191
 Alpha  occ. eigenvalues --   -0.30997
 Alpha virt. eigenvalues --   -0.00988  -0.00171   0.00257   0.00682   0.01184
 Alpha virt. eigenvalues --    0.01655   0.01820   0.02502   0.03284   0.03322
 Alpha virt. eigenvalues --    0.04170   0.06245   0.06341   0.06877   0.07030
 Alpha virt. eigenvalues --    0.07633   0.08023   0.08945   0.10062   0.10619
 Alpha virt. eigenvalues --    0.11011   0.11177   0.11841   0.12627   0.12782
 Alpha virt. eigenvalues --    0.13244   0.13470   0.13789   0.14254   0.14689
 Alpha virt. eigenvalues --    0.15026   0.15776   0.16219   0.16286   0.16761
 Alpha virt. eigenvalues --    0.16829   0.17734   0.17917   0.19187   0.19956
 Alpha virt. eigenvalues --    0.20960   0.22207   0.22581   0.22831   0.23554
 Alpha virt. eigenvalues --    0.24619   0.25696   0.26741   0.28575   0.30000
 Alpha virt. eigenvalues --    0.30319   0.31640   0.31906   0.32866   0.33371
 Alpha virt. eigenvalues --    0.34160   0.35664   0.37307   0.38106   0.39833
 Alpha virt. eigenvalues --    0.40153   0.42123   0.42641   0.42745   0.45850
 Alpha virt. eigenvalues --    0.46754   0.46950   0.48689   0.50587   0.52083
 Alpha virt. eigenvalues --    0.53079   0.53252   0.55133   0.56909   0.57552
 Alpha virt. eigenvalues --    0.58006   0.58090   0.58882   0.59637   0.60234
 Alpha virt. eigenvalues --    0.61015   0.63631   0.63656   0.64695   0.64746
 Alpha virt. eigenvalues --    0.66631   0.67267   0.68084   0.70052   0.71176
 Alpha virt. eigenvalues --    0.71734   0.72593   0.74195   0.76665   0.77037
 Alpha virt. eigenvalues --    0.78452   0.80902   0.81853   0.82977   0.85766
 Alpha virt. eigenvalues --    0.88159   0.88753   0.90793   0.91465   0.94110
 Alpha virt. eigenvalues --    0.95551   0.95884   0.96703   1.01245   1.04507
 Alpha virt. eigenvalues --    1.04840   1.05588   1.05884   1.06703   1.07505
 Alpha virt. eigenvalues --    1.12407   1.15781   1.15861   1.18336   1.21305
 Alpha virt. eigenvalues --    1.23159   1.24250   1.33362   1.33694   1.42304
 Alpha virt. eigenvalues --    1.43930   1.46663   1.47409   1.48266   1.49423
 Alpha virt. eigenvalues --    1.51462   1.55011   1.55514   1.57538   1.60264
 Alpha virt. eigenvalues --    1.60364   1.61001   1.61838   1.65225   1.68358
 Alpha virt. eigenvalues --    1.68641   1.69638   1.70411   1.74244   1.76948
 Alpha virt. eigenvalues --    1.77002   1.77870   1.79917   1.86166   1.86657
 Alpha virt. eigenvalues --    1.89242   1.91978   1.94928   1.95443   1.96324
 Alpha virt. eigenvalues --    1.98346   1.98917   2.01263   2.04322   2.04594
 Alpha virt. eigenvalues --    2.06831   2.07583   2.08255   2.10292   2.10704
 Alpha virt. eigenvalues --    2.12144   2.16604   2.21082   2.30677   2.30817
 Alpha virt. eigenvalues --    2.35611   2.43899   2.44174   2.47003   2.48818
 Alpha virt. eigenvalues --    2.50111   2.52065   2.52964   2.62333   2.65346
 Alpha virt. eigenvalues --    2.66421   2.68920   2.71708   2.72783   2.73494
 Alpha virt. eigenvalues --    2.73978   2.76184   2.76618   2.79512   2.84778
 Alpha virt. eigenvalues --    2.85569   2.85662   2.89001   2.94541   2.94654
 Alpha virt. eigenvalues --    2.94862   2.98393   2.98981   3.14166   3.19035
 Alpha virt. eigenvalues --    3.26612   3.39689   3.39768   3.43219   3.49342
 Alpha virt. eigenvalues --    3.53305   3.55800   3.57142   3.66893   3.73407
 Alpha virt. eigenvalues --    3.79818   3.87853   3.94863   4.01541   4.03014
 Alpha virt. eigenvalues --    4.08109   4.09151   4.16942   4.20332   4.21909
 Alpha virt. eigenvalues --    4.29860   4.30020   4.34605   4.37004   4.52559
 Alpha virt. eigenvalues --    4.86192   4.96772   5.10599   5.21756   5.79174
 Alpha virt. eigenvalues --    6.51928   6.59912   6.84718   6.90932   7.64397
 Alpha virt. eigenvalues --    7.66928   7.68563  23.68334  23.99895  24.01903
 Alpha virt. eigenvalues --   24.05433  24.15975  24.17437  24.27972  48.37347
 Alpha virt. eigenvalues --   50.05109  66.95950 290.79109 290.82004 290.85525
 Alpha virt. eigenvalues -- 1020.93035
          Condensed to atoms (all electrons):
               1          2          3          4          5          6
     1  C   16.568059  -7.808909   4.538983  -4.091538   4.442921  -7.091852
     2  C   -7.808909  16.230833  -4.658073   3.509515  -4.301075   2.369177
     3  C    4.538983  -4.658073  10.041693  -2.811470   3.420239  -4.286714
     4  C   -4.091538   3.509515  -2.811470   8.445448  -2.716083   3.349240
     5  C    4.442921  -4.301075   3.420239  -2.716083   9.765347  -4.370075
     6  C   -7.091852   2.369177  -4.286714   3.349240  -4.370075  15.398158
     7  F    0.814598  -0.554328   0.157052  -0.100548   0.154078  -0.533826
     8  H   -0.358270   0.759914  -0.216902   0.108884  -0.105920   0.107470
     9  H    0.059034  -0.044776   0.333153  -0.028684  -0.002626   0.010153
    10  H   -0.009751   0.003732  -0.006536   0.338464  -0.005307   0.003965
    11  H    0.049127   0.013550  -0.006306  -0.022929   0.328108  -0.036536
    12  H   -0.340436   0.113422  -0.108032   0.104686  -0.208133   0.733854
    13  O    0.023712  -0.006153  -0.000365  -0.000636  -0.000244  -0.005748
    14  C    0.010682  -0.008747   0.002433  -0.000932   0.002387  -0.008007
    15  H   -0.000183   0.000082  -0.000199   0.000066  -0.000194   0.000030
    16  H   -0.001935   0.001122  -0.000144   0.000104  -0.000147   0.001071
    17  H   -0.185733   0.100357  -0.037654   0.037744  -0.037243   0.097392
    18  Br   0.393776  -0.224934   0.087776  -0.076290   0.086423  -0.214483
               7          8          9         10         11         12
     1  C    0.814598  -0.358270   0.059034  -0.009751   0.049127  -0.340436
     2  C   -0.554328   0.759914  -0.044776   0.003732   0.013550   0.113422
     3  C    0.157052  -0.216902   0.333153  -0.006536  -0.006306  -0.108032
     4  C   -0.100548   0.108884  -0.028684   0.338464  -0.022929   0.104686
     5  C    0.154078  -0.105920  -0.002626  -0.005307   0.328108  -0.208133
     6  C   -0.533826   0.107470   0.010153   0.003965  -0.036536   0.733854
     7  F    9.228485  -0.029864   0.001863  -0.000888   0.001655  -0.029616
     8  H   -0.029864   0.502828  -0.005173   0.001534   0.000429   0.005453
     9  H    0.001863  -0.005173   0.469107   0.001331  -0.001000   0.000322
    10  H   -0.000888   0.001534   0.001331   0.472928   0.001593   0.001448
    11  H    0.001655   0.000429  -0.001000   0.001593   0.468309  -0.004057
    12  H   -0.029616   0.005453   0.000322   0.001448  -0.004057   0.500279
    13  O    0.007320   0.001333   0.000016  -0.000005   0.000015   0.001373
    14  C    0.001842  -0.001206   0.000025  -0.000007   0.000023  -0.001217
    15  H   -0.000414  -0.000024  -0.000001   0.000001  -0.000001  -0.000027
    16  H   -0.000366   0.000108  -0.000004   0.000001  -0.000004   0.000112
    17  H    0.007161   0.007571  -0.000391   0.000334  -0.000302   0.007556
    18  Br  -0.008033  -0.011676   0.000897  -0.000676   0.000750  -0.011556
              13         14         15         16         17         18
     1  C    0.023712   0.010682  -0.000183  -0.001935  -0.185733   0.393776
     2  C   -0.006153  -0.008747   0.000082   0.001122   0.100357  -0.224934
     3  C   -0.000365   0.002433  -0.000199  -0.000144  -0.037654   0.087776
     4  C   -0.000636  -0.000932   0.000066   0.000104   0.037744  -0.076290
     5  C   -0.000244   0.002387  -0.000194  -0.000147  -0.037243   0.086423
     6  C   -0.005748  -0.008007   0.000030   0.001071   0.097392  -0.214483
     7  F    0.007320   0.001842  -0.000414  -0.000366   0.007161  -0.008033
     8  H    0.001333  -0.001206  -0.000024   0.000108   0.007571  -0.011676
     9  H    0.000016   0.000025  -0.000001  -0.000004  -0.000391   0.000897
    10  H   -0.000005  -0.000007   0.000001   0.000001   0.000334  -0.000676
    11  H    0.000015   0.000023  -0.000001  -0.000004  -0.000302   0.000750
    12  H    0.001373  -0.001217  -0.000027   0.000112   0.007556  -0.011556
    13  O    8.113025   0.269521  -0.082867  -0.091781   0.011415  -0.006914
    14  C    0.269521   4.944346   0.377428   0.384571  -0.002102   0.000554
    15  H   -0.082867   0.377428   0.733744  -0.140257   0.002976  -0.000720
    16  H   -0.091781   0.384571  -0.140257   0.739522  -0.000875   0.000400
    17  H    0.011415  -0.002102   0.002976  -0.000875   0.649176   0.231399
    18  Br  -0.006914   0.000554  -0.000720   0.000400   0.231399  34.866364
 Mulliken charges:
               1
     1  C   -1.012285
     2  C    0.505290
     3  C   -0.448935
     4  C   -0.045042
     5  C   -0.452457
     6  C    0.476731
     7  F   -0.116170
     8  H    0.233510
     9  H    0.206753
    10  H    0.197839
    11  H    0.207576
    12  H    0.234571
    13  O   -0.233017
    14  C    0.028406
    15  H    0.110560
    16  H    0.108505
    17  H    0.111221
    18  Br  -0.113057
 Sum of Mulliken charges =  -0.00000
 Mulliken charges with hydrogens summed into heavy atoms:
               1
     1  C   -1.012285
     2  C    0.738801
     3  C   -0.242182
     4  C    0.152797
     5  C   -0.244880
     6  C    0.711302
     7  F   -0.116170
    13  O   -0.233017
    14  C    0.247471
    18  Br  -0.001836
 Electronic spatial extent (au):  <R**2>=           3345.5923
 Charge=             -0.0000 electrons
 Dipole moment (field-independent basis, Debye):
    X=              0.4971    Y=             -1.6706    Z=             -0.0036  Tot=              1.7430
 Quadrupole moment (field-independent basis, Debye-Ang):
   XX=            -47.8919   YY=            -74.1367   ZZ=            -66.0033
   XY=             -9.1327   XZ=              0.0946   YZ=             -0.0427
 Traceless Quadrupole moment (field-independent basis, Debye-Ang):
   XX=             14.7854   YY=            -11.4594   ZZ=             -3.3260
   XY=             -9.1327   XZ=              0.0946   YZ=             -0.0427
 Octapole moment (field-independent basis, Debye-Ang**2):
  XXX=            120.9212  YYY=             45.4504  ZZZ=             -0.1022  XYY=             51.1596
  XXY=            -26.7737  XXZ=             -0.1659  XZZ=              5.2707  YZZ=              9.7933
  YYZ=              0.0075  XYZ=             -0.0361
 Hexadecapole moment (field-independent basis, Debye-Ang**3):
 XXXX=          -2154.1563 YYYY=           -986.0843 ZZZZ=           -297.7544 XXXY=           -239.5766
 XXXZ=              0.8369 YYYX=            -46.1329 YYYZ=              0.3170 ZZZX=              0.3905
 ZZZY=             -0.0117 XXYY=           -560.9149 XXZZ=           -486.1440 YYZZ=           -236.2454
 XXYZ=             -0.0079 YYXZ=              0.2897 ZZXY=             13.4884
 N-N= 6.716554989836D+02 E-N=-8.543305344014D+03  KE= 3.016112475609D+03
 1\1\GINC-R820\POpt\RM062X\6-311++G(d,p)\C7H8Br1F1O1\ZJXU\27-Mar-2024\1
 \\# m062x 6-311++G(d,p) opt=z-matrix\\test\\0,1\C\C,1,d1\C,2,d2,1,120.
 \C,3,d3,2,120.,1,0.,0\C,4,d4,3,120.,2,0.,0\C,5,d5,4,120.,3,0.,0\F,1,d6
 ,2,120.,3,180.,0\H,2,d7,3,120.,4,180.,0\H,3,d8,4,120.,5,180.,0\H,4,d9,
 5,120.,6,180.,0\H,5,d10,6,120.,1,180.,0\H,6,d11,1,120.,2,180.,0\O,7,d1
 2,1,179.9,3,180.,0\C,13,d13,1,179.9,2,180.,0\H,14,d14,1,120.,2,90.,0\H
 ,14,d15,1,120.,2,-90.,0\H,7,d16,1,100.,2,90.,0\Br,17,d17,7,160.,1,0.,0
 \\d1=1.37954724\d2=1.38379548\d3=1.38739831\d4=1.39427806\d5=1.3972915
 2\d6=1.34709729\d7=1.08366385\d8=1.08279202\d9=1.08309309\d10=1.082714
 68\d11=1.08300255\d12=3.02878749\d13=1.19901814\d14=1.10364693\d15=1.1
 0369001\d16=2.09825696\d17=1.42480299\\Version=ES64L-G16RevB.01\State=
 1-A\HF=-3020.6989782\RMSD=2.177e-09\RMSF=3.567e-03\Dipole=-0.3012334,-
 0.5909483,-0.1739847\Quadrupole=9.0851359,-10.5611472,1.4760113,1.2587
 57,6.7562102,0.7209616\PG=C01 [X(C7H8Br1F1O1)]\\@


 FROM WHENCE IT HAPPENS, THAT THEY WHICH TRUST TO BOOKS, DO AS THEY THAT CAST UP MANY LITTLE SUMMS INTO GREATER,
 WITHOUT CONSIDERING WETHER THOSE LITTLE SUMMES WERE RIGHTLY CAST UP OR NOT...
 AND AT LAST FINDING THE ERROUR VISIBLE, AND NOT MISTRUSTING THEIR FIRST GROUNDS,
 KNOW NOT WHICH WAY TO CLEERE THEMSELVES...
 BUT SPEND TIME IN FLUTTERING OVER THEIR BOOKES....
 AS BIRDS THAT ENTERING BY THE CHIMNEY, AND FINDING THEMSELVES INCLOSED IN A CHAMBER,
 FLUTTER AT THE FALSE LIGHT OF A GLASSE WINDOW,
 FOR WANT OF WIT TO CONSIDER WHICH WAY THEY CAME IN....
           LEVIATHAN
 Job cpu time:       0 days  5 hours  7 minutes 36.5 seconds.
 Elapsed time:       0 days  2 hours 33 minutes 54.1 seconds.
 File lengths (MBytes):  RWF=     60 Int=      0 D2E=      0 Chk=      9 Scr=      1
 Normal termination of Gaussian 16 at Wed Mar 27 16:34:23 2024.
