 Entering Gaussian System, Link 0=g16
 Input=model_H2b.gjf
 Output=model_H2b.log
 Initial command:
 /home/lywu/software/g16/l1.exe "/home/lywu/software/g16/scr/Gau-109511.inp" -scrdir="/home/lywu/software/g16/scr/"
 Entering Link 1 = /home/lywu/software/g16/l1.exe PID=    109512.
  
 Copyright (c) 1988-2017, Gaussian, Inc.  All Rights Reserved.
  
 This is part of the Gaussian(R) 16 program.  It is based on
 the Gaussian(R) 09 system (copyright 2009, Gaussian, Inc.),
 the Gaussian(R) 03 system (copyright 2003, Gaussian, Inc.),
 the Gaussian(R) 98 system (copyright 1998, Gaussian, Inc.),
 the Gaussian(R) 94 system (copyright 1995, Gaussian, Inc.),
 the Gaussian 92(TM) system (copyright 1992, Gaussian, Inc.),
 the Gaussian 90(TM) system (copyright 1990, Gaussian, Inc.),
 the Gaussian 88(TM) system (copyright 1988, Gaussian, Inc.),
 the Gaussian 86(TM) system (copyright 1986, Carnegie Mellon
 University), and the Gaussian 82(TM) system (copyright 1983,
 Carnegie Mellon University). Gaussian is a federally registered
 trademark of Gaussian, Inc.
  
 This software contains proprietary and confidential information,
 including trade secrets, belonging to Gaussian, Inc.
  
 This software is provided under written license and may be
 used, copied, transmitted, or stored only in accord with that
 written license.
  
 The following legend is applicable only to US Government
 contracts under FAR:
  
                    RESTRICTED RIGHTS LEGEND
  
 Use, reproduction and disclosure by the US Government is
 subject to restrictions as set forth in subparagraphs (a)
 and (c) of the Commercial Computer Software - Restricted
 Rights clause in FAR 52.227-19.
  
 Gaussian, Inc.
 340 Quinnipiac St., Bldg. 40, Wallingford CT 06492
  
  
 ---------------------------------------------------------------
 Warning -- This program may not be used in any manner that
 competes with the business of Gaussian, Inc. or will provide
 assistance to any competitor of Gaussian, Inc.  The licensee
 of this program is prohibited from giving any competitor of
 Gaussian, Inc. access to this program.  By using this program,
 the user acknowledges that Gaussian, Inc. is engaged in the
 business of creating and licensing software in the field of
 computational chemistry and represents and warrants to the
 licensee that it is not a competitor of Gaussian, Inc. and that
 it will not use this program in any manner prohibited above.
 ---------------------------------------------------------------
  

 Cite this work as:
 Gaussian 16, Revision B.01,
 M. J. Frisch, G. W. Trucks, H. B. Schlegel, G. E. Scuseria, 
 M. A. Robb, J. R. Cheeseman, G. Scalmani, V. Barone, 
 G. A. Petersson, H. Nakatsuji, X. Li, M. Caricato, A. V. Marenich, 
 J. Bloino, B. G. Janesko, R. Gomperts, B. Mennucci, H. P. Hratchian, 
 J. V. Ortiz, A. F. Izmaylov, J. L. Sonnenberg, D. Williams-Young, 
 F. Ding, F. Lipparini, F. Egidi, J. Goings, B. Peng, A. Petrone, 
 T. Henderson, D. Ranasinghe, V. G. Zakrzewski, J. Gao, N. Rega, 
 G. Zheng, W. Liang, M. Hada, M. Ehara, K. Toyota, R. Fukuda, 
 J. Hasegawa, M. Ishida, T. Nakajima, Y. Honda, O. Kitao, H. Nakai, 
 T. Vreven, K. Throssell, J. A. Montgomery, Jr., J. E. Peralta, 
 F. Ogliaro, M. J. Bearpark, J. J. Heyd, E. N. Brothers, K. N. Kudin, 
 V. N. Staroverov, T. A. Keith, R. Kobayashi, J. Normand, 
 K. Raghavachari, A. P. Rendell, J. C. Burant, S. S. Iyengar, 
 J. Tomasi, M. Cossi, J. M. Millam, M. Klene, C. Adamo, R. Cammi, 
 J. W. Ochterski, R. L. Martin, K. Morokuma, O. Farkas, 
 J. B. Foresman, and D. J. Fox, Gaussian, Inc., Wallingford CT, 2016.
 
 ******************************************
 Gaussian 16:  ES64L-G16RevB.01 20-Dec-2017
                20-Mar-2024 
 ******************************************
 %mem=4GB
 %nprocshared=4
 Will use up to    4 processors via shared memory.
 %chk=model_H2b.chk
 ----------------------------------
 # opt=z-matrix 6-311++g(d,p) m062x
 ----------------------------------
 1/10=7,18=40,26=3,38=1/1,3;
 2/12=2,17=6,18=5,29=3,40=1/2;
 3/5=4,6=6,7=1111,11=2,25=1,30=1,71=1,74=-55/1,2,3;
 4//1;
 5/5=2,38=5/2;
 6/7=2,8=2,9=2,10=2,28=1/1;
 7/29=1/1,2,3,16;
 1/10=7,18=40,26=3/3(2);
 2/29=3/2;
 99//99;
 2/29=3/2;
 3/5=4,6=6,7=1111,11=2,25=1,30=1,71=1,74=-55/1,2,3;
 4/5=5,16=3,69=1/1;
 5/5=2,38=5/2;
 7//1,2,3,16;
 1/18=40,26=3/3(-5);
 2/29=3/2;
 6/7=2,8=2,9=2,10=2,19=2,28=1/1;
 99/9=1/99;
 ----
 test
 ----
 Symbolic Z-matrix:
 Charge =  0 Multiplicity = 1
 C
 C                    1    B1
 C                    2    B2       1     120. 
 C                    3    B3       2     120.     1     0.       0
 C                    4    B4       3     120.     2     0.       0
 C                    1    B5       2     119.97771  3     1.71723  0
 F                    1    B6       2     120.     3    -180.     0
 H                    2    B7       1     120.     6    -178.28277  0
 H                    3    B8       2     120.     1     180.     0
 H                    4    B9       3     120.     2     180.     0
 H                    5    B10      4     120.     3     180.     0
 H                    6    B11      1     119.91553  2    -177.77152  0
 O                    1    B12      2     120.     3    -180.     0
 C                    13   B13      1     179.9    2     180.     0
 H                    14   B14      13    119.99997  1    -90.0449  0
 H                    14   B15      13    119.99997  1     90.0449  0
 H                    7    B16      1     100.     2     90.      0
 N                    17   B17      7     179.9    1     90.      0
 C                    18   B18      17    119.5    7     0.       0
 O                    19   B19      18    123.2    17   -180.     0
 C                    18   B20      17    121.9    19   -180.     0
 H                    21   B21      18    110.7    17   -180.     0
 H                    21   B22      18    110.7    17   -60.      0
 H                    21   B23      18    110.7    17    60.      0
 H                    19   B24      18    113.46722  17    0.       0
 H                    7    B25      1     100.     2    -90.      0
 N                    26   B26      7     179.9    1    -90.      0
 C                    27   B27      26    119.5    7     180.     0
 O                    28   B28      27    123.2    26   -180.     0
 C                    27   B29      26    121.9    28   -180.     0
 H                    30   B30      27    110.7    26    180.     0
 H                    30   B31      27    110.7    26   -60.      0
 H                    30   B32      27    110.7    26    60.      0
 H                    28   B33      27    113.46722  26    0.       0
       Variables:
  B1                    1.3                      
  B2                    1.3                      
  B3                    1.3                      
  B4                    1.3                      
  B5                    1.3                      
  B6                    1.4                      
  B7                    1.                       
  B8                    1.                       
  B9                    1.                       
  B10                   1.                       
  B11                   1.00101                  
  B12                   4.2                      
  B13                   1.2                      
  B14                   1.                       
  B15                   1.                       
  B16                   2.12                     
  B17                   1.                       
  B18                   1.33                     
  B19                   1.23                     
  B20                   1.45                     
  B21                   1.                       
  B22                   1.                       
  B23                   1.                       
  B24                   1.                       
  B25                   2.12                     
  B26                   1.                       
  B27                   1.33                     
  B28                   1.23                     
  B29                   1.45                     
  B30                   1.                       
  B31                   1.                       
  B32                   1.                       
  B33                   1.                       
 

 GradGradGradGradGradGradGradGradGradGradGradGradGradGradGradGradGradGrad
 Berny optimization.
 Initialization pass.
                       ----------------------------
                       !    Initial Parameters    !
                       ! (Angstroms and Degrees)  !
 ----------------------                            ----------------------
 !      Name          Value   Derivative information (Atomic Units)     !
 ------------------------------------------------------------------------
 !       B1          1.3      estimate D2E/DX2                          !
 !       B2          1.3      estimate D2E/DX2                          !
 !       B3          1.3      estimate D2E/DX2                          !
 !       B4          1.3      estimate D2E/DX2                          !
 !       B5          1.3      estimate D2E/DX2                          !
 !       B6          1.4      estimate D2E/DX2                          !
 !       B7          1.0      estimate D2E/DX2                          !
 !       B8          1.0      estimate D2E/DX2                          !
 !       B9          1.0      estimate D2E/DX2                          !
 !       B10         1.0      estimate D2E/DX2                          !
 !       B11         1.001    estimate D2E/DX2                          !
 !       B12         4.2      estimate D2E/DX2                          !
 !       B13         1.2      estimate D2E/DX2                          !
 !       B14         1.0      estimate D2E/DX2                          !
 !       B15         1.0      estimate D2E/DX2                          !
 !       B16         2.12     estimate D2E/DX2                          !
 !       B17         1.0      estimate D2E/DX2                          !
 !       B18         1.33     estimate D2E/DX2                          !
 !       B19         1.23     estimate D2E/DX2                          !
 !       B20         1.45     estimate D2E/DX2                          !
 !       B21         1.0      estimate D2E/DX2                          !
 !       B22         1.0      estimate D2E/DX2                          !
 !       B23         1.0      estimate D2E/DX2                          !
 !       B24         1.0      estimate D2E/DX2                          !
 !       B25         2.12     estimate D2E/DX2                          !
 !       B26         1.0      estimate D2E/DX2                          !
 !       B27         1.33     estimate D2E/DX2                          !
 !       B28         1.23     estimate D2E/DX2                          !
 !       B29         1.45     estimate D2E/DX2                          !
 !       B30         1.0      estimate D2E/DX2                          !
 !       B31         1.0      estimate D2E/DX2                          !
 !       B32         1.0      estimate D2E/DX2                          !
 !       B33         1.0      estimate D2E/DX2                          !
 ------------------------------------------------------------------------
 Trust Radius=3.00D-01 FncErr=1.00D-07 GrdErr=1.00D-06 EigMax=2.50D+02 EigMin=1.00D-04
 Number of steps in this run=     43 maximum allowed number of steps=    100.
 GradGradGradGradGradGradGradGradGradGradGradGradGradGradGradGradGradGrad

 ---------------------------------------------------------------------------------------------------
                            Z-MATRIX (ANGSTROMS AND DEGREES)
   CD    Cent   Atom    N1       Length/X        N2       Alpha/Y        N3        Beta/Z          J
 ---------------------------------------------------------------------------------------------------
      1      1  C 
      2      2  C        1   1.300000(     1)
      3      3  C        2   1.300000(     2)      1  120.000(    34)
      4      4  C        3   1.300000(     3)      2  120.000(    35)      1    0.000(    66)      0
      5      5  C        4   1.300000(     4)      3  120.000(    36)      2    0.000(    67)      0
      6      6  C        1   1.300000(     5)      2  119.978(    37)      3    1.717(    68)      0
      7      7  F        1   1.400000(     6)      2  120.000(    38)      3 -180.000(    69)      0
      8      8  H        2   1.000000(     7)      1  120.000(    39)      6 -178.283(    70)      0
      9      9  H        3   1.000000(     8)      2  120.000(    40)      1  180.000(    71)      0
     10     10  H        4   1.000000(     9)      3  120.000(    41)      2  180.000(    72)      0
     11     11  H        5   1.000000(    10)      4  120.000(    42)      3  180.000(    73)      0
     12     12  H        6   1.001007(    11)      1  119.916(    43)      2 -177.772(    74)      0
     13     13  O        1   4.200000(    12)      2  120.000(    44)      3 -180.000(    75)      0
     14     14  C       13   1.200000(    13)      1  179.900(    45)      2  180.000(    76)      0
     15     15  H       14   1.000000(    14)     13  120.000(    46)      1  -90.045(    77)      0
     16     16  H       14   1.000000(    15)     13  120.000(    47)      1   90.045(    78)      0
     17     17  H        7   2.120000(    16)      1  100.000(    48)      2   90.000(    79)      0
     18     18  N       17   1.000000(    17)      7  179.900(    49)      1   90.000(    80)      0
     19     19  C       18   1.330000(    18)     17  119.500(    50)      7    0.000(    81)      0
     20     20  O       19   1.230000(    19)     18  123.200(    51)     17 -180.000(    82)      0
     21     21  C       18   1.450000(    20)     17  121.900(    52)     19 -180.000(    83)      0
     22     22  H       21   1.000000(    21)     18  110.700(    53)     17 -180.000(    84)      0
     23     23  H       21   1.000000(    22)     18  110.700(    54)     17  -60.000(    85)      0
     24     24  H       21   1.000000(    23)     18  110.700(    55)     17   60.000(    86)      0
     25     25  H       19   1.000000(    24)     18  113.467(    56)     17    0.000(    87)      0
     26     26  H        7   2.120000(    25)      1  100.000(    57)      2  -90.000(    88)      0
     27     27  N       26   1.000000(    26)      7  179.900(    58)      1  -90.000(    89)      0
     28     28  C       27   1.330000(    27)     26  119.500(    59)      7  180.000(    90)      0
     29     29  O       28   1.230000(    28)     27  123.200(    60)     26 -180.000(    91)      0
     30     30  C       27   1.450000(    29)     26  121.900(    61)     28 -180.000(    92)      0
     31     31  H       30   1.000000(    30)     27  110.700(    62)     26  180.000(    93)      0
     32     32  H       30   1.000000(    31)     27  110.700(    63)     26  -60.000(    94)      0
     33     33  H       30   1.000000(    32)     27  110.700(    64)     26   60.000(    95)      0
     34     34  H       28   1.000000(    33)     27  113.467(    65)     26    0.000(    96)      0
 ---------------------------------------------------------------------------------------------------
                         Z-Matrix orientation:                         
 ---------------------------------------------------------------------
 Center     Atomic      Atomic             Coordinates (Angstroms)
 Number     Number       Type             X           Y           Z
 ---------------------------------------------------------------------
      1          6           0        0.000000    0.000000    0.000000
      2          6           0        0.000000    0.000000    1.300000
      3          6           0        1.125833    0.000000    1.950000
      4          6           0        2.251666    0.000000    1.300000
      5          6           0        2.251666    0.000000    0.000000
      6          6           0        1.125580   -0.033745   -0.649562
      7          9           0       -1.212436    0.000000   -0.700000
      8          1           0       -0.866025    0.000000    1.800000
      9          1           0        1.125833    0.000000    2.950000
     10          1           0        3.117691    0.000000    1.800000
     11          1           0        3.117691    0.000000   -0.500000
     12          1           0        1.125833   -0.000000   -1.650000
     13          8           0       -3.637307    0.000000   -2.100000
     14          6           0       -4.675488    0.000000   -2.701813
     15          1           0       -5.108404    0.866025   -2.951981
     16          1           0       -5.108404   -0.866025   -2.951981
     17          1           0       -1.531249    2.087792   -0.884067
     18          7           0       -1.680760    3.072599   -0.972403
     19          6           0       -1.199589    3.715582   -2.032566
     20          8           0       -1.343395    4.924232   -2.209721
     21          6           0       -2.411147    3.829308    0.025809
     22          1           0       -2.460643    4.795025   -0.229027
     23          1           0       -3.344400    3.482475    0.119330
     24          1           0       -1.962551    3.763826    0.917141
     25          1           0       -0.710188    3.121088   -2.670583
     26          1           0       -1.531249   -2.087792   -0.884067
     27          7           0       -1.680760   -3.072599   -0.972403
     28          6           0       -2.357768   -3.719561   -0.027945
     29          8           0       -2.580991   -4.928484   -0.067642
     30          6           0       -1.179494   -3.825076   -2.105985
     31          1           0       -1.423325   -4.791461   -2.024456
     32          1           0       -1.565208   -3.476362   -2.960165
     33          1           0       -0.183359   -3.757713   -2.162354
     34          1           0       -2.667076   -3.127812    0.716476
 ---------------------------------------------------------------------
                    Distance matrix (angstroms):
                    1          2          3          4          5
     1  C    0.000000
     2  C    1.300000   0.000000
     3  C    2.251666   1.300000   0.000000
     4  C    2.600000   2.251666   1.300000   0.000000
     5  C    2.251666   2.600000   2.251666   1.300000   0.000000
     6  C    1.300000   2.251413   2.599781   2.251666   1.300438
     7  F    1.400000   2.338803   3.534119   4.000000   3.534119
     8  H    1.997498   1.000000   1.997498   3.157531   3.600000
     9  H    3.157531   1.997498   1.000000   1.997498   3.157531
    10  H    3.600000   3.157531   1.997498   1.000000   1.997498
    11  H    3.157531   3.600000   3.157531   1.997498   1.000000
    12  H    1.997498   3.157531   3.600000   3.157531   1.997498
    13  O    4.200000   4.978956   6.252200   6.800000   6.252200
    14  C    5.399999   6.154242   7.436040   7.999998   7.435406
    15  H    5.963219   6.702621   7.977790   8.544002   7.977144
    16  H    5.963219   6.702621   7.977790   8.544002   7.977144
    17  H    2.735905   3.387292   4.410317   4.841433   4.410317
    18  N    3.634747   4.174881   5.085102   5.483489   5.084329
    19  C    4.401805   5.133279   5.922328   6.068171   5.463335
    20  O    5.561982   6.194426   6.902784   7.034960   6.485013
    21  C    4.525251   4.701148   5.556648   6.166765   6.033746
    22  H    5.394393   5.602227   6.372066   6.894639   6.726854
    23  H    4.829791   4.970576   5.954995   6.696086   6.592255
    24  H    4.342712   4.261992   4.977078   5.663267   5.724261
    25  H    4.168641   5.100106   5.870430   5.854853   5.064167
    26  H    2.735905   3.387292   4.410317   4.841433   4.410317
    27  N    3.634747   4.174881   5.085102   5.483489   5.084329
    28  C    4.403973   4.599743   5.466523   6.070045   5.923073
    29  O    5.563816   5.729041   6.488558   7.036688   6.902833
    30  C    4.523007   5.255773   6.032972   6.164804   5.553309
    31  H    5.392808   6.002996   6.727006   6.893161   6.368837
    32  H    4.826753   5.716990   6.590638   6.693476   5.951151
    33  H    4.339332   5.112918   5.722399   5.660181   4.972477
    34  H    4.172510   4.151747   5.068624   5.858134   5.872867
                    6          7          8          9         10
     6  C    0.000000
     7  F    2.338803   0.000000
     8  H    3.157212   2.523886   0.000000
     9  H    3.599720   4.334743   2.300000   0.000000
    10  H    3.157531   5.000000   3.983717   2.300000   0.000000
    11  H    1.998003   4.334743   4.600000   3.983717   2.300000
    12  H    1.001007   2.523886   3.983717   4.600000   3.983717
    13  O    4.978956   2.800000   4.784349   6.941902   7.800000
    14  C    6.153476   3.999999   5.897315   8.099279   8.999998
    15  H    6.706212   4.582574   6.428771   8.628389   9.539390
    16  H    6.697491   4.582574   6.428771   8.628389   9.539390
    17  H    3.408028   2.120000   3.464912   5.110678   5.759839
    18  N    4.198707   3.119999   4.217923   5.718660   6.336577
    19  C    4.623479   3.947334   5.348399   6.636196   6.865349
    20  O    5.754257   5.152132   6.368187   7.547706   7.760620
    21  C    5.280885   4.077660   4.494303   5.977016   6.955531
    22  H    6.029500   4.977158   5.445367   6.779475   7.630663
    23  H    5.738965   4.164638   4.592888   6.334296   7.530665
    24  H    5.139325   4.164638   4.018482   5.276080   6.383940
    25  H    4.172235   3.725136   5.454502   6.686039   6.661829
    26  H    3.366429   2.120000   3.464912   5.110678   5.759839
    27  N    4.149024   3.119999   4.217923   5.718660   6.336577
    28  C    5.109340   3.949503   4.404749   5.902437   6.867108
    29  O    6.167314   5.153909   5.542486   6.865615   7.762282
    30  C    4.669981   4.075425   5.475965   6.746016   6.953685
    31  H    5.569840   4.975616   6.155903   7.362168   7.629246
    32  H    4.942756   4.161477   5.935749   7.365925   7.528201
    33  H    4.227269   4.161477   5.503335   6.478469   6.381034
    34  H    5.081687   3.729020   3.768423   5.399814   6.664890
                   11         12         13         14         15
    11  H    0.000000
    12  H    2.300000   0.000000
    13  O    6.941902   4.784349   0.000000
    14  C    8.098249   5.895900   1.200000   0.000000
    15  H    8.627332   6.427353   1.907878   1.000000   0.000000
    16  H    8.627332   6.427353   1.907878   1.000000   1.732051
    17  H    5.110678   3.464912   3.205129   4.189191   4.308714
    18  N    5.717444   4.216274   3.813189   4.626027   4.531715
    19  C    5.898577   4.399942   4.444386   5.131795   4.923833
    20  O    6.860940   5.537006   5.433427   5.965992   5.585274
    21  C    6.745971   5.475597   4.548201   5.218310   4.992341
    22  H    7.360944   6.154205   5.279900   5.832022   5.464628
    23  H    7.366806   5.936425   4.139910   4.675284   4.403461
    24  H    6.479471   5.504064   5.106304   5.884152   5.767473
    25  H    5.394931   3.762148   4.316802   5.046363   4.950636
    26  H    5.110678   3.464912   3.205129   4.189191   5.079109
    27  N    5.717444   4.216274   3.813189   4.626027   5.583926
    28  C    6.636160   5.348053   4.445871   5.133862   6.094554
    29  O    7.546646   6.366660   5.434725   5.967892   6.948638
    30  C    5.972956   4.489283   4.546657   5.216148   6.177255
    31  H    6.775168   5.440269   5.278780   5.830392   6.815223
    32  H    6.329854   4.587301   4.137460   4.671797   5.604519
    33  H    5.270746   4.012094   5.104317   5.881382   6.801363
    34  H    6.687791   5.456150   4.319385   5.049913   5.947133
                   16         17         18         19         20
    16  H    0.000000
    17  H    5.079109   0.000000
    18  N    5.583926   1.000000   0.000000
    19  C    6.092232   2.019591   1.330000   0.000000
    20  O    6.946461   3.136564   2.252403   1.230000   0.000000
    21  C    6.179691   2.152898   1.450000   2.391174   2.708605
    22  H    6.817082   2.936317   2.031644   2.451165   2.277737
    23  H    5.608397   2.497892   2.031644   3.047165   3.392221
    24  H    6.804559   2.497892   2.031644   3.047165   3.392221
    25  H    5.943111   2.221144   1.956573   1.000000   1.965877
    26  H    4.308714   4.175585   5.163312   5.925217   7.138707
    27  N    4.531715   5.163312   6.145197   6.887297   8.099017
    28  C    4.925307   5.928021   6.890847   7.787248   8.972416
    29  O    5.586663   7.141194   8.102243   8.971570  10.158551
    30  C    4.990794   6.048044   7.008152   7.541042   8.751458
    31  H    5.463438   6.973970   7.938295   8.509988   9.717788
    32  H    4.400928   5.938952   6.844957   7.260728   8.436963
    33  H    5.765539   6.133577   7.093050   7.543189   8.759230
    34  H    4.953114   5.572645   6.501555   7.519494   8.668920
                   21         22         23         24         25
    21  C    0.000000
    22  H    1.000000   0.000000
    23  H    1.000000   1.620237   0.000000
    24  H    1.000000   1.620237   1.620237   0.000000
    25  H    3.265787   3.439091   3.853996   3.853996   0.000000
    26  H    6.050965   6.976104   5.943249   6.137737   5.567604
    27  N    7.011862   7.941053   6.850443   7.098344   6.495197
    28  C    7.549249   8.517581   7.270795   7.553176   7.516152
    29  O    8.759938   9.725593   8.447603   8.769751   8.664342
    30  C    8.040592   8.914621   7.939720   8.206334   6.984857
    31  H    8.916111   9.808176   8.760386   9.062930   7.970852
    32  H    7.937536   8.756527   7.815001   8.222634   6.658924
    33  H    8.204511   9.059421   8.223053   8.319999   6.917641
    34  H    6.996002   7.981725   6.671675   6.930462   7.372268
                   26         27         28         29         30
    26  H    0.000000
    27  N    1.000000   0.000000
    28  C    2.019591   1.330000   0.000000
    29  O    3.136564   2.252403   1.230000   0.000000
    30  C    2.152898   1.450000   2.391174   2.708605   0.000000
    31  H    2.936317   2.031644   2.451165   2.277737   1.000000
    32  H    2.497892   2.031644   3.047165   3.392221   1.000000
    33  H    2.497892   2.031644   3.047165   3.392221   1.000000
    34  H    2.221144   1.956573   1.000000   1.965877   3.265787
                   31         32         33         34
    31  H    0.000000
    32  H    1.620237   0.000000
    33  H    1.620237   1.620237   0.000000
    34  H    3.439091   3.853996   3.853996   0.000000
 Stoichiometry    C11H17FN2O3
 Framework group  C1[X(C11H17FN2O3)]
 Deg. of freedom    96
 Full point group                 C1      NOp   1
 Largest Abelian subgroup         C1      NOp   1
 Largest concise Abelian subgroup C1      NOp   1
                         Standard orientation:                         
 ---------------------------------------------------------------------
 Center     Atomic      Atomic             Coordinates (Angstroms)
 Number     Number       Type             X           Y           Z
 ---------------------------------------------------------------------
      1          6           0        0.000457    1.291765   -0.001238
      2          6           0       -0.089187    1.942161   -1.123267
      3          6           0       -0.090338    3.242160   -1.122716
      4          6           0       -0.001845    3.891764   -0.000137
      5          6           0        0.087799    3.241368    1.121892
      6          6           0        0.055271    1.941337    1.123507
      7          9           0        0.001697   -0.108234   -0.001831
      8          1           0       -0.157258    1.442466   -1.986789
      9          1           0       -0.159295    3.742465   -1.985815
     10          1           0       -0.002731    4.891763    0.000287
     11          1           0        0.155870    3.741062    1.985415
     12          1           0        0.157907    1.441064    1.984441
     13          8           0        0.004177   -2.908233   -0.003016
     14          6           0        0.005406   -4.108231   -0.001437
     15          1           0        0.869175   -4.607438   -0.069969
     16          1           0       -0.857447   -4.609025    0.067059
     17          1           0        2.083271   -0.474455   -0.167158
     18          7           0        3.065282   -0.647201   -0.243403
     19          6           0        3.798020   -0.760395    0.860763
     20          8           0        5.009519   -0.972434    0.846314
     21          6           0        3.722454   -0.779503   -1.529141
     22          1           0        4.700797   -0.948969   -1.410282
     23          1           0        3.334059   -1.541087   -2.047926
     24          1           0        3.613115    0.054791   -2.069509
     25          1           0        3.268370   -0.656395    1.702579
     26          1           0       -2.079224   -0.478282    0.163185
     27          7           0       -3.060651   -0.652833    0.242763
     28          6           0       -3.796974   -0.767095   -0.858906
     29          8           0       -5.008029   -0.981341   -0.840345
     30          6           0       -3.713158   -0.786638    1.530719
     31          1           0       -4.691593   -0.957855    1.415182
     32          1           0       -3.321597   -1.547639    2.047979
     33          1           0       -3.603479    0.047724    2.070914
     34          1           0       -3.270411   -0.661930   -1.702512
 ---------------------------------------------------------------------
 Rotational constants (GHZ):           0.4004203           0.2441305           0.1724963
 Standard basis: 6-311++G(d,p) (5D, 7F)
 There are   510 symmetry adapted cartesian basis functions of A   symmetry.
 There are   493 symmetry adapted basis functions of A   symmetry.
   493 basis functions,   765 primitive gaussians,   510 cartesian basis functions
    65 alpha electrons       65 beta electrons
       nuclear repulsion energy      1168.0421586032 Hartrees.
 NAtoms=   34 NActive=   34 NUniq=   34 SFac= 1.00D+00 NAtFMM=   60 NAOKFM=F Big=F
 Integral buffers will be    131072 words long.
 Raffenetti 2 integral format.
 Two-electron integral symmetry is turned on.
 One-electron integrals computed using PRISM.
 NBasis=   493 RedAO= T EigKep=  2.78D-06  NBF=   493
 NBsUse=   492 1.00D-06 EigRej=  3.49D-07 NBFU=   492
 ExpMin= 3.60D-02 ExpMax= 1.14D+04 ExpMxC= 1.72D+03 IAcc=3 IRadAn=         5 AccDes= 0.00D+00
 Harris functional with IExCor= 1009 and IRadAn=       5 diagonalized for initial guess.
 HarFok:  IExCor= 1009 AccDes= 0.00D+00 IRadAn=         5 IDoV= 1 UseB2=F ITyADJ=14
 ICtDFT=  3500011 ScaDFX=  1.000000  1.000000  1.000000  1.000000
 FoFCou: FMM=F IPFlag=           0 FMFlag=      100000 FMFlg1=           0
         NFxFlg=           0 DoJE=T BraDBF=F KetDBF=T FulRan=T
         wScrn=  0.000000 ICntrl=       500 IOpCl=  0 I1Cent=   200000004 NGrid=           0
         NMat0=    1 NMatS0=      1 NMatT0=    0 NMatD0=    1 NMtDS0=    0 NMtDT0=    0
 Petite list used in FoFCou.
 Requested convergence on RMS density matrix=1.00D-08 within 128 cycles.
 Requested convergence on MAX density matrix=1.00D-06.
 Requested convergence on             energy=1.00D-06.
 No special actions if energy rises.
 SCF Done:  E(RM062X) =  -864.131548662     A.U. after   15 cycles
            NFock= 15  Conv=0.49D-08     -V/T= 1.9991

 **********************************************************************

            Population analysis using the SCF Density.

 **********************************************************************

 Orbital symmetries:
       Occupied  (A) (A) (A) (A) (A) (A) (A) (A) (A) (A) (A) (A)
                 (A) (A) (A) (A) (A) (A) (A) (A) (A) (A) (A) (A)
                 (A) (A) (A) (A) (A) (A) (A) (A) (A) (A) (A) (A)
                 (A) (A) (A) (A) (A) (A) (A) (A) (A) (A) (A) (A)
                 (A) (A) (A) (A) (A) (A) (A) (A) (A) (A) (A) (A)
                 (A) (A) (A) (A) (A)
       Virtual   (A) (A) (A) (A) (A) (A) (A) (A) (A) (A) (A) (A)
                 (A) (A) (A) (A) (A) (A) (A) (A) (A) (A) (A) (A)
                 (A) (A) (A) (A) (A) (A) (A) (A) (A) (A) (A) (A)
                 (A) (A) (A) (A) (A) (A) (A) (A) (A) (A) (A) (A)
                 (A) (A) (A) (A) (A) (A) (A) (A) (A) (A) (A) (A)
                 (A) (A) (A) (A) (A) (A) (A) (A) (A) (A) (A) (A)
                 (A) (A) (A) (A) (A) (A) (A) (A) (A) (A) (A) (A)
                 (A) (A) (A) (A) (A) (A) (A) (A) (A) (A) (A) (A)
                 (A) (A) (A) (A) (A) (A) (A) (A) (A) (A) (A) (A)
                 (A) (A) (A) (A) (A) (A) (A) (A) (A) (A) (A) (A)
                 (A) (A) (A) (A) (A) (A) (A) (A) (A) (A) (A) (A)
                 (A) (A) (A) (A) (A) (A) (A) (A) (A) (A) (A) (A)
                 (A) (A) (A) (A) (A) (A) (A) (A) (A) (A) (A) (A)
                 (A) (A) (A) (A) (A) (A) (A) (A) (A) (A) (A) (A)
                 (A) (A) (A) (A) (A) (A) (A) (A) (A) (A) (A) (A)
                 (A) (A) (A) (A) (A) (A) (A) (A) (A) (A) (A) (A)
                 (A) (A) (A) (A) (A) (A) (A) (A) (A) (A) (A) (A)
                 (A) (A) (A) (A) (A) (A) (A) (A) (A) (A) (A) (A)
                 (A) (A) (A) (A) (A) (A) (A) (A) (A) (A) (A) (A)
                 (A) (A) (A) (A) (A) (A) (A) (A) (A) (A) (A) (A)
                 (A) (A) (A) (A) (A) (A) (A) (A) (A) (A) (A) (A)
                 (A) (A) (A) (A) (A) (A) (A) (A) (A) (A) (A) (A)
                 (A) (A) (A) (A) (A) (A) (A) (A) (A) (A) (A) (A)
                 (A) (A) (A) (A) (A) (A) (A) (A) (A) (A) (A) (A)
                 (A) (A) (A) (A) (A) (A) (A) (A) (A) (A) (A) (A)
                 (A) (A) (A) (A) (A) (A) (A) (A) (A) (A) (A) (A)
                 (A) (A) (A) (A) (A) (A) (A) (A) (A) (A) (A) (A)
                 (A) (A) (A) (A) (A) (A) (A) (A) (A) (A) (A) (A)
                 (A) (A) (A) (A) (A) (A) (A) (A) (A) (A) (A) (A)
                 (A) (A) (A) (A) (A) (A) (A) (A) (A) (A) (A) (A)
                 (A) (A) (A) (A) (A) (A) (A) (A) (A) (A) (A) (A)
                 (A) (A) (A) (A) (A) (A) (A) (A) (A) (A) (A) (A)
                 (A) (A) (A) (A) (A) (A) (A) (A) (A) (A) (A) (A)
                 (A) (A) (A) (A) (A) (A) (A) (A) (A) (A) (A) (A)
                 (A) (A) (A) (A) (A) (A) (A) (A) (A) (A) (A) (A)
                 (A) (A) (A) (A) (A) (A) (A)
 The electronic state is 1-A.
 Alpha  occ. eigenvalues --  -25.27593 -19.64988 -19.57659 -19.57645 -14.76795
 Alpha  occ. eigenvalues --  -14.76781 -10.63377 -10.62842 -10.62092 -10.62077
 Alpha  occ. eigenvalues --  -10.54542 -10.54531 -10.54232 -10.54219 -10.53651
 Alpha  occ. eigenvalues --  -10.53637 -10.53459  -1.38173  -1.20080  -1.14778
 Alpha  occ. eigenvalues --   -1.14764  -1.05180  -1.03180  -1.03161  -0.91408
 Alpha  occ. eigenvalues --   -0.90492  -0.83195  -0.83179  -0.76506  -0.75905
 Alpha  occ. eigenvalues --   -0.74451  -0.69091  -0.68973  -0.68462  -0.64558
 Alpha  occ. eigenvalues --   -0.64193  -0.61825  -0.61211  -0.60791  -0.58995
 Alpha  occ. eigenvalues --   -0.55929  -0.54663  -0.54644  -0.53906  -0.53880
 Alpha  occ. eigenvalues --   -0.53652  -0.53553  -0.52191  -0.49853  -0.48587
 Alpha  occ. eigenvalues --   -0.48569  -0.48452  -0.46903  -0.46652  -0.46508
 Alpha  occ. eigenvalues --   -0.45217  -0.45203  -0.44198  -0.36098  -0.35862
 Alpha  occ. eigenvalues --   -0.34914  -0.32714  -0.32692  -0.31504  -0.31439
 Alpha virt. eigenvalues --   -0.01988  -0.01674  -0.00685  -0.00638   0.00383
 Alpha virt. eigenvalues --    0.00400   0.00747   0.01266   0.01753   0.01794
 Alpha virt. eigenvalues --    0.02276   0.02760   0.03111   0.03975   0.04030
 Alpha virt. eigenvalues --    0.04607   0.05094   0.05191   0.05444   0.06081
 Alpha virt. eigenvalues --    0.06889   0.06912   0.07363   0.08095   0.08235
 Alpha virt. eigenvalues --    0.08774   0.08792   0.09323   0.09366   0.09521
 Alpha virt. eigenvalues --    0.10191   0.10598   0.10857   0.11658   0.11705
 Alpha virt. eigenvalues --    0.12071   0.12456   0.12462   0.12803   0.13038
 Alpha virt. eigenvalues --    0.13458   0.13674   0.14166   0.14200   0.14506
 Alpha virt. eigenvalues --    0.14742   0.15146   0.15216   0.15358   0.16032
 Alpha virt. eigenvalues --    0.16535   0.16949   0.17139   0.17323   0.17811
 Alpha virt. eigenvalues --    0.18349   0.18529   0.18604   0.19265   0.19790
 Alpha virt. eigenvalues --    0.19990   0.20203   0.20230   0.20675   0.21481
 Alpha virt. eigenvalues --    0.22175   0.23242   0.23756   0.24264   0.24904
 Alpha virt. eigenvalues --    0.25260   0.25417   0.25834   0.26153   0.26867
 Alpha virt. eigenvalues --    0.27201   0.27439   0.27659   0.28002   0.28683
 Alpha virt. eigenvalues --    0.29533   0.30018   0.30369   0.30577   0.30908
 Alpha virt. eigenvalues --    0.32108   0.32315   0.32562   0.33115   0.33569
 Alpha virt. eigenvalues --    0.33591   0.33790   0.33951   0.34415   0.35050
 Alpha virt. eigenvalues --    0.35446   0.36127   0.36525   0.36851   0.37463
 Alpha virt. eigenvalues --    0.38194   0.39436   0.39911   0.39973   0.40412
 Alpha virt. eigenvalues --    0.41163   0.41757   0.43084   0.43523   0.43925
 Alpha virt. eigenvalues --    0.44223   0.45995   0.46402   0.46540   0.49604
 Alpha virt. eigenvalues --    0.49664   0.50976   0.52042   0.52826   0.53764
 Alpha virt. eigenvalues --    0.53811   0.55603   0.56196   0.57530   0.58881
 Alpha virt. eigenvalues --    0.59497   0.59903   0.59932   0.60328   0.60686
 Alpha virt. eigenvalues --    0.61121   0.61520   0.62062   0.62170   0.63077
 Alpha virt. eigenvalues --    0.63664   0.65199   0.65734   0.66397   0.66914
 Alpha virt. eigenvalues --    0.68355   0.68503   0.69254   0.69691   0.70979
 Alpha virt. eigenvalues --    0.71729   0.72749   0.73999   0.75145   0.75462
 Alpha virt. eigenvalues --    0.76065   0.76466   0.76813   0.77827   0.77987
 Alpha virt. eigenvalues --    0.79381   0.79638   0.80204   0.80808   0.81145
 Alpha virt. eigenvalues --    0.83093   0.83647   0.84653   0.84923   0.87201
 Alpha virt. eigenvalues --    0.88292   0.88996   0.89667   0.91119   0.91676
 Alpha virt. eigenvalues --    0.93789   0.94053   0.94877   0.95132   0.97209
 Alpha virt. eigenvalues --    0.99439   0.99584   1.00537   1.01074   1.01469
 Alpha virt. eigenvalues --    1.02259   1.03011   1.05599   1.07111   1.07310
 Alpha virt. eigenvalues --    1.08166   1.10082   1.10146   1.10568   1.10739
 Alpha virt. eigenvalues --    1.13610   1.14410   1.15470   1.16491   1.17768
 Alpha virt. eigenvalues --    1.18272   1.18815   1.20558   1.22213   1.22386
 Alpha virt. eigenvalues --    1.23391   1.23898   1.25435   1.26092   1.27361
 Alpha virt. eigenvalues --    1.29594   1.29881   1.30574   1.33994   1.34654
 Alpha virt. eigenvalues --    1.36122   1.37171   1.37325   1.40431   1.43196
 Alpha virt. eigenvalues --    1.46738   1.51674   1.52225   1.53289   1.54568
 Alpha virt. eigenvalues --    1.55244   1.57658   1.58578   1.58768   1.59188
 Alpha virt. eigenvalues --    1.61423   1.61975   1.62529   1.63728   1.64048
 Alpha virt. eigenvalues --    1.64417   1.64727   1.65138   1.66451   1.66638
 Alpha virt. eigenvalues --    1.68339   1.68521   1.69520   1.70013   1.70933
 Alpha virt. eigenvalues --    1.72738   1.73299   1.74213   1.74936   1.75288
 Alpha virt. eigenvalues --    1.76103   1.76434   1.77865   1.79472   1.81048
 Alpha virt. eigenvalues --    1.83065   1.83348   1.83741   1.83864   1.84526
 Alpha virt. eigenvalues --    1.85186   1.85898   1.87615   1.87675   1.90178
 Alpha virt. eigenvalues --    1.92878   1.93243   1.93361   1.95778   1.97802
 Alpha virt. eigenvalues --    1.97988   1.99415   2.02021   2.03115   2.04008
 Alpha virt. eigenvalues --    2.04099   2.04475   2.06896   2.09005   2.12886
 Alpha virt. eigenvalues --    2.13977   2.14183   2.14879   2.15332   2.15944
 Alpha virt. eigenvalues --    2.16686   2.17690   2.19111   2.19975   2.26632
 Alpha virt. eigenvalues --    2.27214   2.29201   2.36907   2.38933   2.40441
 Alpha virt. eigenvalues --    2.40938   2.41424   2.43281   2.45115   2.47844
 Alpha virt. eigenvalues --    2.48762   2.50976   2.53575   2.56401   2.56907
 Alpha virt. eigenvalues --    2.57129   2.57551   2.58631   2.60337   2.62281
 Alpha virt. eigenvalues --    2.62933   2.64290   2.64724   2.66152   2.66692
 Alpha virt. eigenvalues --    2.68748   2.70060   2.70572   2.71834   2.72010
 Alpha virt. eigenvalues --    2.73588   2.74396   2.76814   2.77179   2.78488
 Alpha virt. eigenvalues --    2.78910   2.79073   2.80418   2.80619   2.84326
 Alpha virt. eigenvalues --    2.84585   2.85026   2.85659   2.87588   2.89053
 Alpha virt. eigenvalues --    2.90052   2.90198   2.90970   2.94779   2.94997
 Alpha virt. eigenvalues --    2.95087   2.95891   2.96177   2.98156   2.98716
 Alpha virt. eigenvalues --    3.02405   3.02525   3.02619   3.03477   3.05812
 Alpha virt. eigenvalues --    3.07594   3.07688   3.08200   3.10019   3.23432
 Alpha virt. eigenvalues --    3.25297   3.28933   3.30053   3.34778   3.39007
 Alpha virt. eigenvalues --    3.40365   3.43746   3.43829   3.45164   3.46563
 Alpha virt. eigenvalues --    3.54565   3.59781   3.60109   3.63479   3.64713
 Alpha virt. eigenvalues --    3.65310   3.71142   3.72156   3.73807   3.76039
 Alpha virt. eigenvalues --    3.86370   3.86979   3.88547   3.88883   3.96355
 Alpha virt. eigenvalues --    3.96620   3.99488   4.00836   4.02867   4.05944
 Alpha virt. eigenvalues --    4.06966   4.08490   4.10788   4.11266   4.11431
 Alpha virt. eigenvalues --    4.11609   4.12521   4.16198   4.17309   4.24579
 Alpha virt. eigenvalues --    4.25155   4.35058   4.93180   4.93480   4.99603
 Alpha virt. eigenvalues --    5.01260   5.07182   5.07426   5.11178   5.19234
 Alpha virt. eigenvalues --    5.19486   5.25725   5.34965   5.35143   5.84260
 Alpha virt. eigenvalues --    5.88463   5.88569   6.62990   6.66909   6.89777
 Alpha virt. eigenvalues --   23.73064  24.10033  24.10414  24.16776  24.25282
 Alpha virt. eigenvalues --   24.27808  24.27904  24.29969  24.52351  24.55309
 Alpha virt. eigenvalues --   24.70864  35.71907  35.73563  50.06936  50.13275
 Alpha virt. eigenvalues --   50.13334  66.97271
          Condensed to atoms (all electrons):
               1          2          3          4          5          6
     1  C   16.341464  -2.103183  -2.831553  -0.404258  -2.746806  -1.956673
     2  C   -2.103183  18.821323   1.973878  -0.960154  -0.582506 -11.632333
     3  C   -2.831553   1.973878   7.242851   0.381572  -0.285523  -0.634523
     4  C   -0.404258  -0.960154   0.381572   7.808657   0.331676  -0.909218
     5  C   -2.746806  -0.582506  -0.285523   0.331676   7.383942   1.709303
     6  C   -1.956673 -11.632333  -0.634523  -0.909218   1.709303  18.918565
     7  F    0.773200  -0.303884  -0.069104   0.001346  -0.052866  -0.309790
     8  H   -0.259092   0.672660   0.012333  -0.054376   0.025192  -0.116335
     9  H    0.055591  -0.037507   0.366299  -0.128653  -0.007135   0.075996
    10  H    0.027077  -0.029794  -0.061390   0.514910  -0.077682  -0.016945
    11  H    0.058257   0.090212  -0.017402  -0.134636   0.398486  -0.072955
    12  H   -0.253617  -0.142432   0.035344  -0.045252  -0.029158   0.714532
    13  O    0.060314  -0.023253  -0.002497  -0.000150  -0.002916  -0.027376
    14  C   -0.002480   0.001475   0.001026   0.000248   0.000977   0.000896
    15  H   -0.000965  -0.001020  -0.000098  -0.000090   0.000226   0.001354
    16  H    0.000058   0.000359   0.000057  -0.000010  -0.000160  -0.000608
    17  H    0.042877   0.033284  -0.066451  -0.010461   0.036986  -0.050635
    18  N   -0.082119   0.006803   0.042856   0.000012   0.007428   0.028730
    19  C    0.058161  -0.029751  -0.000314   0.006744  -0.016538   0.003519
    20  O    0.002954  -0.000089  -0.000997   0.000132   0.000648  -0.002168
    21  C   -0.006281   0.051141   0.008066   0.003146  -0.011439  -0.044957
    22  H    0.007205   0.003381   0.000297   0.000897  -0.002865  -0.005470
    23  H    0.004074  -0.003979   0.000074   0.000227  -0.000733   0.002788
    24  H   -0.000930  -0.007144  -0.001825   0.002775   0.004764   0.005165
    25  H    0.053486  -0.021496  -0.008959   0.009124  -0.021913   0.012361
    26  H    0.044250  -0.076574   0.013279  -0.009347  -0.051988   0.056350
    27  N   -0.071528   0.046561   0.017465  -0.002253   0.034036  -0.019586
    28  C    0.052754   0.019923  -0.011297   0.007597  -0.004069  -0.040946
    29  O    0.002571  -0.001150   0.000136  -0.000046  -0.000755  -0.000542
    30  C   -0.008339  -0.038100  -0.007476   0.002606   0.008120   0.045211
    31  H    0.009316  -0.003542  -0.002642   0.000933  -0.000754   0.000567
    32  H    0.004142   0.003587  -0.000437   0.000198  -0.000098  -0.005040
    33  H   -0.010207  -0.006962   0.002488   0.004429   0.002304   0.010361
    34  H    0.051739   0.015620  -0.021997   0.009484  -0.008644  -0.023640
               7          8          9         10         11         12
     1  C    0.773200  -0.259092   0.055591   0.027077   0.058257  -0.253617
     2  C   -0.303884   0.672660  -0.037507  -0.029794   0.090212  -0.142432
     3  C   -0.069104   0.012333   0.366299  -0.061390  -0.017402   0.035344
     4  C    0.001346  -0.054376  -0.128653   0.514910  -0.134636  -0.045252
     5  C   -0.052866   0.025192  -0.007135  -0.077682   0.398486  -0.029158
     6  C   -0.309790  -0.116335   0.075996  -0.016945  -0.072955   0.714532
     7  F    9.078263  -0.015339  -0.001308   0.001153  -0.000714  -0.017331
     8  H   -0.015339   0.530415  -0.010462   0.000686   0.002778   0.003363
     9  H   -0.001308  -0.010462   0.490408  -0.015555   0.001243   0.002713
    10  H    0.001153   0.000686  -0.015555   0.505195  -0.017621   0.001860
    11  H   -0.000714   0.002778   0.001243  -0.017621   0.500571  -0.018410
    12  H   -0.017331   0.003363   0.002713   0.001860  -0.018410   0.549949
    13  O    0.002230  -0.000289   0.000023   0.000000   0.000035  -0.000355
    14  C    0.001239   0.000212  -0.000021   0.000018  -0.000022   0.000218
    15  H   -0.000192  -0.000051   0.000006  -0.000002   0.000006   0.000087
    16  H   -0.000311   0.000121  -0.000002   0.000001  -0.000005   0.000039
    17  H    0.028896  -0.008939   0.001740  -0.001529   0.001787   0.010522
    18  N   -0.018265  -0.000809   0.000367   0.000040  -0.000418   0.007096
    19  C   -0.002281   0.003438  -0.000557   0.000375  -0.000562  -0.003123
    20  O    0.000026   0.000096  -0.000029  -0.000004   0.000028  -0.000308
    21  C    0.000933   0.000112  -0.000325   0.000196  -0.000244   0.000204
    22  H   -0.000512   0.000450  -0.000056   0.000014   0.000021  -0.000822
    23  H   -0.000389  -0.000395   0.000098   0.000014  -0.000048   0.000181
    24  H    0.000921  -0.003765  -0.000448  -0.000037   0.000086  -0.000733
    25  H   -0.004596   0.000424  -0.000252   0.000025   0.000141  -0.020565
    26  H    0.041656   0.013999   0.000809  -0.001304   0.001818  -0.009444
    27  N   -0.017908   0.007725  -0.000345  -0.000033   0.000559  -0.000309
    28  C   -0.005848  -0.003484  -0.000562   0.000424  -0.000660   0.003309
    29  O    0.000125  -0.000310   0.000029  -0.000007  -0.000017  -0.000004
    30  C   -0.001053  -0.000993   0.000026   0.000072  -0.000064  -0.001402
    31  H   -0.000889  -0.000764   0.000009   0.000027  -0.000086   0.000550
    32  H   -0.000027   0.000014  -0.000033   0.000001   0.000158  -0.000963
    33  H    0.000354  -0.000379  -0.000031   0.000081  -0.000891  -0.002242
    34  H   -0.004176  -0.021295   0.000178   0.000035  -0.000214   0.000048
              13         14         15         16         17         18
     1  C    0.060314  -0.002480  -0.000965   0.000058   0.042877  -0.082119
     2  C   -0.023253   0.001475  -0.001020   0.000359   0.033284   0.006803
     3  C   -0.002497   0.001026  -0.000098   0.000057  -0.066451   0.042856
     4  C   -0.000150   0.000248  -0.000090  -0.000010  -0.010461   0.000012
     5  C   -0.002916   0.000977   0.000226  -0.000160   0.036986   0.007428
     6  C   -0.027376   0.000896   0.001354  -0.000608  -0.050635   0.028730
     7  F    0.002230   0.001239  -0.000192  -0.000311   0.028896  -0.018265
     8  H   -0.000289   0.000212  -0.000051   0.000121  -0.008939  -0.000809
     9  H    0.000023  -0.000021   0.000006  -0.000002   0.001740   0.000367
    10  H    0.000000   0.000018  -0.000002   0.000001  -0.001529   0.000040
    11  H    0.000035  -0.000022   0.000006  -0.000005   0.001787  -0.000418
    12  H   -0.000355   0.000218   0.000087   0.000039   0.010522   0.007096
    13  O    8.130920   0.249633  -0.093508  -0.093131   0.038469  -0.006472
    14  C    0.249633   4.860187   0.404180   0.403883  -0.016726   0.001939
    15  H   -0.093508   0.404180   0.741822  -0.161908   0.003943   0.001214
    16  H   -0.093131   0.403883  -0.161908   0.741876  -0.001452   0.000539
    17  H    0.038469  -0.016726   0.003943  -0.001452   0.747809   0.344940
    18  N   -0.006472   0.001939   0.001214   0.000539   0.344940   7.327859
    19  C   -0.004935   0.001993  -0.000325  -0.000259  -0.186613   0.071152
    20  O    0.000156  -0.000237  -0.000082  -0.000022   0.011606  -0.183860
    21  C   -0.001898   0.002870  -0.001821   0.000581  -0.087357   0.160911
    22  H    0.000250   0.000550  -0.000631   0.000083  -0.044807  -0.121903
    23  H   -0.000527   0.000912   0.000173  -0.000037  -0.014011  -0.041431
    24  H   -0.000240  -0.000773   0.000510  -0.000238   0.043781  -0.047453
    25  H   -0.000202  -0.000809  -0.000556  -0.000093  -0.034194  -0.330171
    26  H    0.038140  -0.017211  -0.001251   0.003750  -0.077874   0.006095
    27  N   -0.006867   0.002141   0.000612   0.001219   0.005598  -0.000021
    28  C   -0.004707   0.002014  -0.000307  -0.000289   0.012459  -0.001079
    29  O    0.000164  -0.000235  -0.000024  -0.000096   0.000084  -0.000001
    30  C   -0.001207   0.002923   0.000513  -0.001725   0.007626  -0.000807
    31  H    0.000326   0.000522   0.000074  -0.000588   0.000863  -0.000093
    32  H   -0.000725   0.000951  -0.000040   0.000131   0.000788  -0.000173
    33  H   -0.000308  -0.000818  -0.000236   0.000515  -0.001166   0.000183
    34  H   -0.000188  -0.000885  -0.000101  -0.000567   0.006334  -0.000706
              19         20         21         22         23         24
     1  C    0.058161   0.002954  -0.006281   0.007205   0.004074  -0.000930
     2  C   -0.029751  -0.000089   0.051141   0.003381  -0.003979  -0.007144
     3  C   -0.000314  -0.000997   0.008066   0.000297   0.000074  -0.001825
     4  C    0.006744   0.000132   0.003146   0.000897   0.000227   0.002775
     5  C   -0.016538   0.000648  -0.011439  -0.002865  -0.000733   0.004764
     6  C    0.003519  -0.002168  -0.044957  -0.005470   0.002788   0.005165
     7  F   -0.002281   0.000026   0.000933  -0.000512  -0.000389   0.000921
     8  H    0.003438   0.000096   0.000112   0.000450  -0.000395  -0.003765
     9  H   -0.000557  -0.000029  -0.000325  -0.000056   0.000098  -0.000448
    10  H    0.000375  -0.000004   0.000196   0.000014   0.000014  -0.000037
    11  H   -0.000562   0.000028  -0.000244   0.000021  -0.000048   0.000086
    12  H   -0.003123  -0.000308   0.000204  -0.000822   0.000181  -0.000733
    13  O   -0.004935   0.000156  -0.001898   0.000250  -0.000527  -0.000240
    14  C    0.001993  -0.000237   0.002870   0.000550   0.000912  -0.000773
    15  H   -0.000325  -0.000082  -0.001821  -0.000631   0.000173   0.000510
    16  H   -0.000259  -0.000022   0.000581   0.000083  -0.000037  -0.000238
    17  H   -0.186613   0.011606  -0.087357  -0.044807  -0.014011   0.043781
    18  N    0.071152  -0.183860   0.160911  -0.121903  -0.041431  -0.047453
    19  C    5.071963   0.485007  -0.014393   0.054146  -0.007566  -0.017981
    20  O    0.485007   8.143628  -0.050287   0.044546  -0.002948  -0.003415
    21  C   -0.014393  -0.050287   5.102615   0.443745   0.428646   0.387125
    22  H    0.054146   0.044546   0.443745   0.462772  -0.023690  -0.028021
    23  H   -0.007566  -0.002948   0.428646  -0.023690   0.573522  -0.072540
    24  H   -0.017981  -0.003415   0.387125  -0.028021  -0.072540   0.596710
    25  H    0.410995  -0.017215  -0.014460   0.024242  -0.003038  -0.003263
    26  H    0.012590   0.000038   0.007378   0.000901   0.000664  -0.001008
    27  N   -0.001029  -0.000001  -0.000771  -0.000090  -0.000178   0.000176
    28  C   -0.001548  -0.000001  -0.000660  -0.000046   0.000031  -0.000021
    29  O   -0.000002  -0.000000   0.000001   0.000000  -0.000003   0.000002
    30  C   -0.000748   0.000003  -0.000628  -0.000028  -0.000048   0.000054
    31  H   -0.000047   0.000000  -0.000024   0.000001  -0.000004  -0.000001
    32  H    0.000020  -0.000002  -0.000064  -0.000005  -0.000018   0.000016
    33  H    0.000014   0.000002   0.000069   0.000001   0.000011  -0.000004
    34  H   -0.000616   0.000001   0.000060   0.000021  -0.000256   0.000153
              25         26         27         28         29         30
     1  C    0.053486   0.044250  -0.071528   0.052754   0.002571  -0.008339
     2  C   -0.021496  -0.076574   0.046561   0.019923  -0.001150  -0.038100
     3  C   -0.008959   0.013279   0.017465  -0.011297   0.000136  -0.007476
     4  C    0.009124  -0.009347  -0.002253   0.007597  -0.000046   0.002606
     5  C   -0.021913  -0.051988   0.034036  -0.004069  -0.000755   0.008120
     6  C    0.012361   0.056350  -0.019586  -0.040946  -0.000542   0.045211
     7  F   -0.004596   0.041656  -0.017908  -0.005848   0.000125  -0.001053
     8  H    0.000424   0.013999   0.007725  -0.003484  -0.000310  -0.000993
     9  H   -0.000252   0.000809  -0.000345  -0.000562   0.000029   0.000026
    10  H    0.000025  -0.001304  -0.000033   0.000424  -0.000007   0.000072
    11  H    0.000141   0.001818   0.000559  -0.000660  -0.000017  -0.000064
    12  H   -0.020565  -0.009444  -0.000309   0.003309  -0.000004  -0.001402
    13  O   -0.000202   0.038140  -0.006867  -0.004707   0.000164  -0.001207
    14  C   -0.000809  -0.017211   0.002141   0.002014  -0.000235   0.002923
    15  H   -0.000556  -0.001251   0.000612  -0.000307  -0.000024   0.000513
    16  H   -0.000093   0.003750   0.001219  -0.000289  -0.000096  -0.001725
    17  H   -0.034194  -0.077874   0.005598   0.012459   0.000084   0.007626
    18  N   -0.330171   0.006095  -0.000021  -0.001079  -0.000001  -0.000807
    19  C    0.410995   0.012590  -0.001029  -0.001548  -0.000002  -0.000748
    20  O   -0.017215   0.000038  -0.000001  -0.000001  -0.000000   0.000003
    21  C   -0.014460   0.007378  -0.000771  -0.000660   0.000001  -0.000628
    22  H    0.024242   0.000901  -0.000090  -0.000046   0.000000  -0.000028
    23  H   -0.003038   0.000664  -0.000178   0.000031  -0.000003  -0.000048
    24  H   -0.003263  -0.001008   0.000176  -0.000021   0.000002   0.000054
    25  H    0.870330   0.005728  -0.000706  -0.000564   0.000001   0.000142
    26  H    0.005728   0.751577   0.335660  -0.184086   0.012609  -0.083106
    27  N   -0.000706   0.335660   7.326923   0.075187  -0.183658   0.166622
    28  C   -0.000564  -0.184086   0.075187   5.066870   0.484047  -0.017224
    29  O    0.000001   0.012609  -0.183658   0.484047   8.144341  -0.051014
    30  C    0.000142  -0.083106   0.166622  -0.017224  -0.051014   5.096291
    31  H    0.000027  -0.045431  -0.121181   0.054053   0.044312   0.443441
    32  H   -0.000255  -0.012806  -0.043200  -0.008174  -0.002791   0.429073
    33  H    0.000143   0.041758  -0.048343  -0.016631  -0.003444   0.387944
    34  H   -0.000129  -0.032458  -0.329119   0.410314  -0.016987  -0.014960
              31         32         33         34
     1  C    0.009316   0.004142  -0.010207   0.051739
     2  C   -0.003542   0.003587  -0.006962   0.015620
     3  C   -0.002642  -0.000437   0.002488  -0.021997
     4  C    0.000933   0.000198   0.004429   0.009484
     5  C   -0.000754  -0.000098   0.002304  -0.008644
     6  C    0.000567  -0.005040   0.010361  -0.023640
     7  F   -0.000889  -0.000027   0.000354  -0.004176
     8  H   -0.000764   0.000014  -0.000379  -0.021295
     9  H    0.000009  -0.000033  -0.000031   0.000178
    10  H    0.000027   0.000001   0.000081   0.000035
    11  H   -0.000086   0.000158  -0.000891  -0.000214
    12  H    0.000550  -0.000963  -0.002242   0.000048
    13  O    0.000326  -0.000725  -0.000308  -0.000188
    14  C    0.000522   0.000951  -0.000818  -0.000885
    15  H    0.000074  -0.000040  -0.000236  -0.000101
    16  H   -0.000588   0.000131   0.000515  -0.000567
    17  H    0.000863   0.000788  -0.001166   0.006334
    18  N   -0.000093  -0.000173   0.000183  -0.000706
    19  C   -0.000047   0.000020   0.000014  -0.000616
    20  O    0.000000  -0.000002   0.000002   0.000001
    21  C   -0.000024  -0.000064   0.000069   0.000060
    22  H    0.000001  -0.000005   0.000001   0.000021
    23  H   -0.000004  -0.000018   0.000011  -0.000256
    24  H   -0.000001   0.000016  -0.000004   0.000153
    25  H    0.000027  -0.000255   0.000143  -0.000129
    26  H   -0.045431  -0.012806   0.041758  -0.032458
    27  N   -0.121181  -0.043200  -0.048343  -0.329119
    28  C    0.054053  -0.008174  -0.016631   0.410314
    29  O    0.044312  -0.002791  -0.003444  -0.016987
    30  C    0.443441   0.429073   0.387944  -0.014960
    31  H    0.463276  -0.024016  -0.027646   0.024047
    32  H   -0.024016   0.574624  -0.072750  -0.002875
    33  H   -0.027646  -0.072750   0.596942  -0.003207
    34  H    0.024047  -0.002875  -0.003207   0.868849
 Mulliken charges:
               1
     1  C   -0.911459
     2  C    0.264644
     3  C   -0.073533
     4  C   -0.427812
     5  C   -0.039542
     6  C    0.284043
     7  F   -0.103558
     8  H    0.223058
     9  H    0.207743
    10  H    0.169698
    11  H    0.208785
    12  H    0.216455
    13  O   -0.248910
    14  C    0.099209
    15  H    0.108486
    16  H    0.108289
    17  H    0.221823
    18  N   -0.172386
    19  C    0.109069
    20  O   -0.427207
    21  C   -0.362191
    22  H    0.185424
    23  H    0.160426
    24  H    0.147604
    25  H    0.096265
    26  H    0.214840
    27  N   -0.173359
    28  C    0.113221
    29  O   -0.427336
    30  C   -0.361747
    31  H    0.185363
    32  H    0.160794
    33  H    0.147663
    34  H    0.096138
 Sum of Mulliken charges =  -0.00000
 Mulliken charges with hydrogens summed into heavy atoms:
               1
     1  C   -0.911459
     2  C    0.487702
     3  C    0.134210
     4  C   -0.258114
     5  C    0.169242
     6  C    0.500498
     7  F   -0.103558
    13  O   -0.248910
    14  C    0.315983
    18  N    0.049437
    19  C    0.205334
    20  O   -0.427207
    21  C    0.131263
    27  N    0.041482
    28  C    0.209359
    29  O   -0.427336
    30  C    0.132073
 Electronic spatial extent (au):  <R**2>=           6321.6818
 Charge=              0.0000 electrons
 Dipole moment (field-independent basis, Debye):
    X=              0.0247    Y=              1.3631    Z=             -0.0129  Tot=              1.3634
 Quadrupole moment (field-independent basis, Debye-Ang):
   XX=           -167.9758   YY=            -73.8826   ZZ=            -90.4896
   XY=             -0.0701   XZ=            -18.0131   YZ=             -0.0132
 Traceless Quadrupole moment (field-independent basis, Debye-Ang):
   XX=            -57.1931   YY=             36.9000   ZZ=             20.2931
   XY=             -0.0701   XZ=            -18.0131   YZ=             -0.0132
 Octapole moment (field-independent basis, Debye-Ang**2):
  XXX=              0.2673  YYY=            -75.4973  ZZZ=             -0.0859  XYY=              0.2689
  XXY=             57.2142  XXZ=             -0.4299  XZZ=             -0.0276  YZZ=              2.0702
  YYZ=              0.0030  XYZ=             22.3479
 Hexadecapole moment (field-independent basis, Debye-Ang**3):
 XXXX=          -7003.5833 YYYY=          -2133.4489 ZZZZ=           -625.6846 XXXY=             -2.0002
 XXXZ=           -561.8333 YYYX=             -1.0059 YYYZ=              0.0816 ZZZX=            -14.0320
 ZZZY=             -0.0279 XXYY=          -1358.9372 XXZZ=           -897.1070 YYZZ=           -538.1078
 XXYZ=             -0.0682 YYXZ=            -16.9690 ZZXY=              0.2550
 N-N= 1.168042158603D+03 E-N=-4.361311459356D+03  KE= 8.649467255475D+02
 Calling FoFJK, ICntrl=      2127 FMM=F ISym2X=0 I1Cent= 0 IOpClX= 0 NMat=1 NMatS=1 NMatT=0.
 ***** Axes restored to original set *****
 -------------------------------------------------------------------
 Center     Atomic                   Forces (Hartrees/Bohr)
 Number     Number              X              Y              Z
 -------------------------------------------------------------------
      1        6          -0.085790595   -0.003005270   -0.049480861
      2        6          -0.053159740    0.000982685    0.015099484
      3        6           0.002767885   -0.000182914    0.036836956
      4        6           0.038784820    0.000694191    0.022341088
      5        6           0.032878324   -0.002673566   -0.016094103
      6        6          -0.013061583    0.003259083   -0.054486992
      7        9           0.022485919    0.000362978    0.012987482
      8        1          -0.065765302    0.000432377    0.035945254
      9        1          -0.001625471   -0.000187618    0.073755996
     10        1           0.064188349    0.000610878    0.037068627
     11        1           0.063042608    0.000450743   -0.038307794
     12        1          -0.001785497   -0.000754613   -0.073959565
     13        8           0.012105452    0.000005476    0.006952525
     14        6           0.066696101   -0.000003432    0.038750423
     15        1          -0.039424303    0.072383533   -0.022861764
     16        1          -0.039420628   -0.072382117   -0.022864332
     17        1          -0.003101538   -0.008491089    0.001106150
     18        7          -0.005028865    0.007827748    0.010004615
     19        6          -0.036743337    0.071819872    0.038428874
     20        8           0.005834975   -0.015812699   -0.004899245
     21        6           0.031600874   -0.044588617   -0.039409412
     22        1           0.000254894    0.071028168   -0.025229872
     23        1          -0.073423837   -0.029077636    0.005614475
     24        1           0.037192428   -0.006263251    0.069681225
     25        1           0.041902858   -0.047279259   -0.056071173
     26        1          -0.000570061    0.008501601   -0.003208383
     27        7           0.006139512   -0.007807420   -0.009370649
     28        6           0.015079711   -0.071609318   -0.051241552
     29        8          -0.001361971    0.015763515    0.007546787
     30        6          -0.018432517    0.044420878    0.047195559
     31        1          -0.021609895   -0.071102923    0.012613356
     32        1          -0.031858592    0.029222522   -0.066329075
     33        1           0.078932872    0.006415989   -0.002559095
     34        1          -0.027723851    0.047039507    0.064444987
 -------------------------------------------------------------------
 Cartesian Forces:  Max     0.085790595 RMS     0.037909348
 -----------------------------------------------------------------------------------------------
                       Internal Coordinate Forces (Hartree/Bohr or radian)
  Cent   Atom   N1       Length/X         N2         Alpha/Y        N3         Beta/Z          J
 -----------------------------------------------------------------------------------------------
      1  C 
      2  C        1   0.166646(     1)
      3  C        2   0.231037(     2)      1   0.490798(    34)
      4  C        3   0.169743(     3)      2   0.487493(    35)      1  -0.005944(    66)     0
      5  C        4   0.054402(     4)      3   0.232518(    36)      2  -0.004729(    67)     0
      6  C        1   0.051260(     5)      2   0.294867(    37)      3  -0.003786(    68)     0
      7  F        1  -0.022600(     6)      2  -0.000012(    38)      3   0.000769(    69)     0
      8  H        2   0.074927(     7)      1  -0.003313(    39)      6  -0.000708(    70)     0
      9  H        3   0.073756(     8)      2  -0.003072(    40)      1   0.000307(    71)     0
     10  H        4   0.074123(     9)      3  -0.000015(    41)      2  -0.001000(    72)     0
     11  H        5   0.073750(    10)      4   0.003126(    42)      3  -0.000738(    73)     0
     12  H        6   0.073892(    11)      1  -0.003105(    43)      2  -0.005464(    74)     0
     13  O        1   0.000049(    12)      2  -0.000010(    44)      3   0.000015(    75)     0
     14  C       13   0.014009(    13)      1  -0.000003(    45)      2  -0.000007(    76)     0
     15  H       14   0.085473(    14)     13   0.006191(    46)      1   0.000105(    77)     0
     16  H       14   0.085470(    15)     13   0.006189(    47)      1  -0.000111(    78)     0
     17  H        7  -0.000530(    16)      1   0.004769(    48)      2   0.000006(    79)     0
     18  N       17   0.007466(    17)      7  -0.000302(    49)      1   0.000253(    80)     0
     19  C       18   0.026165(    18)     17  -0.023469(    50)      7   0.000257(    81)     0
     20  O       19  -0.015515(    19)     18   0.019075(    51)     17  -0.000354(    82)     0
     21  C       18   0.004895(    20)     17  -0.027722(    52)     19  -0.000347(    83)     0
     22  H       21   0.075010(    21)     18  -0.014028(    53)     17  -0.000226(    84)     0
     23  H       21   0.079133(    22)     18  -0.004639(    54)     17  -0.000166(    85)     0
     24  H       21   0.079204(    23)     18  -0.004100(    55)     17   0.000408(    86)     0
     25  H       19   0.084389(    24)     18   0.006989(    56)     17   0.000142(    87)     0
     26  H        7  -0.000541(    25)      1   0.004672(    57)      2   0.000002(    88)     0
     27  N       26   0.007463(    26)      7   0.000293(    58)      1   0.000255(    89)     0
     28  C       27   0.026148(    27)     26  -0.023474(    59)      7   0.000251(    90)     0
     29  O       28  -0.015490(    28)     27   0.019073(    60)     26  -0.000356(    91)     0
     30  C       27   0.004881(    29)     26  -0.027759(    61)     28  -0.000332(    92)     0
     31  H       30   0.075010(    30)     27  -0.014034(    62)     26  -0.000225(    93)     0
     32  H       30   0.079136(    31)     27  -0.004639(    63)     26  -0.000162(    94)     0
     33  H       30   0.079204(    32)     27  -0.004118(    64)     26   0.000400(    95)     0
     34  H       28   0.084385(    33)     27   0.006984(    65)     26   0.000139(    96)     0
 -----------------------------------------------------------------------------------------------
 Internal  Forces:  Max     0.490798202 RMS     0.093242327

 GradGradGradGradGradGradGradGradGradGradGradGradGradGradGradGradGradGrad
 Berny optimization.
 Search for a local minimum.
 Step number   1 out of a maximum of   43
 All quantities printed in internal units (Hartrees-Bohrs-Radians)
 Second derivative matrix not updated -- first step.
 ITU=  0
     Eigenvalues ---    0.00539   0.03554   0.03554   0.38245   0.38245
     Eigenvalues ---    0.45621   0.47512   0.47688   0.47688   0.47688
     Eigenvalues ---    0.47688   0.47688   0.47688   0.47688   0.47688
     Eigenvalues ---    0.47688   0.47688   0.47688   0.47688   0.47688
     Eigenvalues ---    0.47688   0.47688   0.47688   0.59506   0.59506
     Eigenvalues ---    0.67193   0.67193   0.67196   0.91086   0.91086
     Eigenvalues ---    1.04823   1.07882   2.01215
 RFO step:  Lambda=-2.24176251D-01 EMin= 5.39045724D-03
 Linear search not attempted -- first point.
 Maximum step size (   0.300) exceeded in Quadratic search.
    -- Step size scaled by   0.573
 Variable       Old X    -DE/DX   Delta X   Delta X   Delta X     New X
                                 (Linear)    (Quad)   (Total)
    B1        2.45664   0.16665   0.00000   0.07375   0.07375   2.53039
    B2        2.45664   0.23104   0.00000   0.08140   0.08140   2.53805
    B3        2.45664   0.16974   0.00000   0.07507   0.07507   2.53172
    B4        2.45664   0.05440   0.00000   0.06771   0.06771   2.52436
    B5        2.45664   0.05126   0.00000   0.06632   0.06632   2.52296
    B6        2.64562  -0.02260   0.00000  -0.01905  -0.01905   2.62657
    B7        1.88973   0.07493   0.00000   0.06129   0.06129   1.95102
    B8        1.88973   0.07376   0.00000   0.06033   0.06033   1.95006
    B9        1.88973   0.07412   0.00000   0.06063   0.06063   1.95036
   B10        1.88973   0.07375   0.00000   0.06033   0.06033   1.95006
   B11        1.89163   0.07389   0.00000   0.06060   0.06060   1.95223
   B12        7.93685   0.00005   0.00000   0.00012   0.00012   7.93697
   B13        2.26767   0.01401   0.00000   0.00631   0.00631   2.27399
   B14        1.88973   0.08547   0.00000   0.06992   0.06992   1.95964
   B15        1.88973   0.08547   0.00000   0.06992   0.06992   1.95964
   B16        4.00622  -0.00053   0.00000  -0.00117  -0.00117   4.00505
   B17        1.88973   0.00747   0.00000   0.00611   0.00611   1.89583
   B18        2.51334   0.02617   0.00000   0.01832   0.01832   2.53165
   B19        2.32436  -0.01551   0.00000  -0.00784  -0.00784   2.31652
   B20        2.74010   0.00489   0.00000   0.00463   0.00463   2.74473
   B21        1.88973   0.07501   0.00000   0.06136   0.06136   1.95109
   B22        1.88973   0.07913   0.00000   0.06473   0.06473   1.95446
   B23        1.88973   0.07920   0.00000   0.06479   0.06479   1.95452
   B24        1.88973   0.08439   0.00000   0.06903   0.06903   1.95876
   B25        4.00622  -0.00054   0.00000  -0.00120  -0.00120   4.00502
   B26        1.88973   0.00746   0.00000   0.00610   0.00610   1.89583
   B27        2.51334   0.02615   0.00000   0.01830   0.01830   2.53164
   B28        2.32436  -0.01549   0.00000  -0.00783  -0.00783   2.31654
   B29        2.74010   0.00488   0.00000   0.00461   0.00461   2.74472
   B30        1.88973   0.07501   0.00000   0.06136   0.06136   1.95109
   B31        1.88973   0.07914   0.00000   0.06473   0.06473   1.95446
   B32        1.88973   0.07920   0.00000   0.06479   0.06479   1.95452
   B33        1.88973   0.08438   0.00000   0.06903   0.06903   1.95875
         Item               Value     Threshold  Converged?
 Maximum Force            0.231037     0.000450     NO 
 RMS     Force            0.079941     0.000300     NO 
 Maximum Displacement     0.081402     0.001800     NO 
 RMS     Displacement     0.052223     0.001200     NO 
 Predicted change in Energy=-1.017853D-01
 GradGradGradGradGradGradGradGradGradGradGradGradGradGradGradGradGradGrad

 ---------------------------------------------------------------------------------------------------
                            Z-MATRIX (ANGSTROMS AND DEGREES)
   CD    Cent   Atom    N1       Length/X        N2       Alpha/Y        N3        Beta/Z          J
 ---------------------------------------------------------------------------------------------------
      1      1  C 
      2      2  C        1   1.339027(     1)
      3      3  C        2   1.343076(     2)      1  120.000(    34)
      4      4  C        3   1.339727(     3)      2  120.000(    35)      1    0.000(    66)      0
      5      5  C        4   1.335832(     4)      3  120.000(    36)      2    0.000(    67)      0
      6      6  C        1   1.335094(     5)      2  119.978(    37)      3    1.717(    68)      0
      7      7  F        1   1.389920(     6)      2  120.000(    38)      3 -180.000(    69)      0
      8      8  H        2   1.032434(     7)      1  120.000(    39)      6 -178.283(    70)      0
      9      9  H        3   1.031927(     8)      2  120.000(    40)      1  180.000(    71)      0
     10     10  H        4   1.032086(     9)      3  120.000(    41)      2  180.000(    72)      0
     11     11  H        5   1.031925(    10)      4  120.000(    42)      3  180.000(    73)      0
     12     12  H        6   1.033074(    11)      1  119.916(    43)      2 -177.772(    74)      0
     13     13  O        1   4.200065(    12)      2  120.000(    44)      3 -180.000(    75)      0
     14     14  C       13   1.203341(    13)      1  179.900(    45)      2  180.000(    76)      0
     15     15  H       14   1.036999(    14)     13  120.000(    46)      1  -90.045(    77)      0
     16     16  H       14   1.036998(    15)     13  120.000(    47)      1   90.045(    78)      0
     17     17  H        7   2.119381(    16)      1  100.000(    48)      2   90.000(    79)      0
     18     18  N       17   1.003232(    17)      7  179.900(    49)      1   90.000(    80)      0
     19     19  C       18   1.339693(    18)     17  119.500(    50)      7    0.000(    81)      0
     20     20  O       19   1.225852(    19)     18  123.200(    51)     17 -180.000(    82)      0
     21     21  C       18   1.452449(    20)     17  121.900(    52)     19 -180.000(    83)      0
     22     22  H       21   1.032470(    21)     18  110.700(    53)     17 -180.000(    84)      0
     23     23  H       21   1.034255(    22)     18  110.700(    54)     17  -60.000(    85)      0
     24     24  H       21   1.034286(    23)     18  110.700(    55)     17   60.000(    86)      0
     25     25  H       19   1.036530(    24)     18  113.467(    56)     17    0.000(    87)      0
     26     26  H        7   2.119367(    25)      1  100.000(    57)      2  -90.000(    88)      0
     27     27  N       26   1.003230(    26)      7  179.900(    58)      1  -90.000(    89)      0
     28     28  C       27   1.339686(    27)     26  119.500(    59)      7  180.000(    90)      0
     29     29  O       28   1.225859(    28)     27  123.200(    60)     26 -180.000(    91)      0
     30     30  C       27   1.452442(    29)     26  121.900(    61)     28 -180.000(    92)      0
     31     31  H       30   1.032470(    30)     27  110.700(    62)     26  180.000(    93)      0
     32     32  H       30   1.034256(    31)     27  110.700(    63)     26  -60.000(    94)      0
     33     33  H       30   1.034286(    32)     27  110.700(    64)     26   60.000(    95)      0
     34     34  H       28   1.036528(    33)     27  113.467(    65)     26    0.000(    96)      0
 ---------------------------------------------------------------------------------------------------
                         Z-Matrix orientation:                         
 ---------------------------------------------------------------------
 Center     Atomic      Atomic             Coordinates (Angstroms)
 Number     Number       Type             X           Y           Z
 ---------------------------------------------------------------------
      1          6           0        0.000000    0.000000    0.000000
      2          6           0        0.000000    0.000000    1.339027
      3          6           0        1.163138    0.000000    2.010565
      4          6           0        2.323376    0.000000    1.340702
      5          6           0        2.323376    0.000000    0.004869
      6          6           0        1.155966   -0.034656   -0.667097
      7          9           0       -1.203706    0.000000   -0.694960
      8          1           0       -0.894114    0.000000    1.855244
      9          1           0        1.163138    0.000000    3.042493
     10          1           0        3.217189    0.000000    1.856745
     11          1           0        3.217049    0.000000   -0.511093
     12          1           0        1.156227    0.000170   -1.699584
     13          8           0       -3.637363    0.000000   -2.100032
     14          6           0       -4.678435    0.000000   -2.703521
     15          1           0       -5.127369    0.898068   -2.962945
     16          1           0       -5.127368   -0.898067   -2.962945
     17          1           0       -1.522426    2.087183   -0.878973
     18          7           0       -1.672420    3.075172   -0.967594
     19          6           0       -1.187742    3.722841   -2.035484
     20          8           0       -1.331064    4.927415   -2.212041
     21          6           0       -2.404041    3.833160    0.032303
     22          1           0       -2.455143    4.830234   -0.230807
     23          1           0       -3.369262    3.474446    0.129028
     24          1           0       -1.940064    3.765433    0.954195
     25          1           0       -0.680464    3.106631   -2.696807
     26          1           0       -1.522424   -2.087169   -0.878972
     27          7           0       -1.672418   -3.075157   -0.967593
     28          6           0       -2.354356   -3.726831   -0.016256
     29          8           0       -2.576828   -4.931684   -0.055821
     30          6           0       -1.170308   -3.828902   -2.103084
     31          1           0       -1.422056   -4.826665   -2.018908
     32          1           0       -1.569235   -3.468242   -2.986525
     33          1           0       -0.140019   -3.759229   -2.161386
     34          1           0       -2.674963   -3.113466    0.755356
 ---------------------------------------------------------------------
                    Distance matrix (angstroms):
                    1          2          3          4          5
     1  C    0.000000
     2  C    1.339027   0.000000
     3  C    2.322771   1.343076   0.000000
     4  C    2.682454   2.323377   1.339727   0.000000
     5  C    2.323381   2.679189   2.317104   1.335832   0.000000
     6  C    1.335094   2.315597   2.677896   2.322779   1.347437
     7  F    1.389920   2.363474   3.594693   4.072373   3.595840
     8  H    2.059459   1.032434   2.063108   3.258374   3.711621
     9  H    3.257246   2.062689   1.031927   2.059671   3.251662
    10  H    3.714540   3.258579   2.059802   1.032086   2.056294
    11  H    3.257395   3.711112   3.252278   2.056160   1.031925
    12  H    2.055589   3.251156   3.710156   3.256620   2.065768
    13  O    4.200065   5.005751   6.319955   6.882519   6.321473
    14  C    5.403405   6.183037   7.506437   8.085858   7.507379
    15  H    5.989614   6.753029   8.069251   8.651098   8.070195
    16  H    5.989614   6.753028   8.069250   8.651097   8.070194
    17  H    2.728866   3.404943   4.462961   4.906474   4.464046
    18  N    3.631792   4.192156   5.134833   5.545386   5.135052
    19  C    4.406072   5.163100   5.979691   6.130753   5.509132
    20  O    5.562758   6.217816   6.952041   7.089170   6.522963
    21  C    4.524773   4.709570   5.597446   6.225230   6.086242
    22  H    5.423298   5.641211   6.437924   6.973883   6.798599
    23  H    4.841524   4.988767   6.012870   6.778352   6.670331
    24  H    4.341984   4.253285   4.992421   5.701298   5.766856
    25  H    4.169767   5.138302   5.933749   5.914025   5.096397
    26  H    2.728854   3.404933   4.462953   4.906466   4.464037
    27  N    3.631777   4.192143   5.134822   5.545375   5.135041
    28  C    4.408234   4.611839   5.510902   6.132845   5.980877
    29  O    5.564590   5.736475   6.525243   7.091105   6.952495
    30  C    4.522507   5.279985   6.085028   6.223020   5.595515
    31  H    5.421709   6.049353   6.798278   6.972226   6.435887
    32  H    4.838443   5.762083   6.668244   6.775398   6.010787
    33  H    4.338548   5.138512   5.764998   5.697784   4.989267
    34  H    4.173687   4.146055   5.099043   5.917744   5.936354
                    6          7          8          9         10
     6  C    0.000000
     7  F    2.360090   0.000000
     8  H    3.250575   2.568927   0.000000
     9  H    3.709759   4.423856   2.375257   0.000000
[...]
     7  F    0.590072  -0.258951  -0.040567   0.002210  -0.033903  -0.256840
     8  H   -0.155728   0.521882  -0.019932  -0.027690   0.016836  -0.055953
     9  H    0.029467  -0.021391   0.349070  -0.087091  -0.001078   0.040172
    10  H    0.024844  -0.011110  -0.060308   0.454488  -0.064502  -0.008867
    11  H    0.030892   0.043887  -0.003709  -0.089379   0.357791  -0.032424
    12  H   -0.155311  -0.067157   0.018477  -0.022560  -0.028989   0.537445
    13  O    0.051208  -0.019996  -0.001476   0.000004  -0.001809  -0.022946
    14  C   -0.003829   0.001492   0.000867   0.000002   0.000888   0.001494
    15  H   -0.000937   0.000018  -0.000001  -0.000050   0.000074   0.000243
    16  H   -0.000351  -0.000300  -0.000002  -0.000015  -0.000023   0.000280
    17  H    0.041795   0.006541  -0.040547   0.008533   0.013143  -0.037663
    18  N   -0.070288  -0.000186   0.028016  -0.000721   0.012103   0.038282
    19  C    0.055879  -0.013344  -0.000035   0.003082  -0.014728  -0.010069
    20  O    0.001628  -0.000299  -0.000572   0.000041   0.000509  -0.001028
    21  C   -0.005148   0.038818   0.001869   0.000722  -0.005129  -0.032186
    22  H    0.005347   0.001995  -0.000121   0.000360  -0.001527  -0.003252
    23  H    0.003080  -0.003665   0.000439   0.000127  -0.000699   0.002871
    24  H    0.000010  -0.001172  -0.001889   0.002289   0.002840   0.000747
    25  H    0.045243  -0.010576  -0.005168   0.004657  -0.017309   0.001613
    26  H    0.041507  -0.054365   0.001102   0.009163  -0.034213   0.019564
    27  N   -0.062929   0.046001   0.017357  -0.002717   0.024351  -0.013338
    28  C    0.049747   0.005195  -0.010658   0.003826  -0.002251  -0.023405
    29  O    0.001468  -0.000379   0.000186  -0.000063  -0.000479  -0.000702
    30  C   -0.006629  -0.026441  -0.002815   0.000618   0.001890   0.033975
    31  H    0.006593  -0.002205  -0.001463   0.000377  -0.000585   0.000456
    32  H    0.004447   0.004331  -0.000414   0.000104  -0.000244  -0.006135
    33  H   -0.008079  -0.007764   0.001527   0.003303   0.001880   0.011974
    34  H    0.042107   0.005587  -0.016227   0.005121  -0.005454  -0.012920
               7          8          9         10         11         12
     1  C    0.590072  -0.155728   0.029467   0.024844   0.030892  -0.155311
     2  C   -0.258951   0.521882  -0.021391  -0.011110   0.043887  -0.067157
     3  C   -0.040567  -0.019932   0.349070  -0.060308  -0.003709   0.018477
     4  C    0.002210  -0.027690  -0.087091   0.454488  -0.089379  -0.022560
     5  C   -0.033903   0.016836  -0.001078  -0.064502   0.357791  -0.028989
     6  C   -0.256840  -0.055953   0.040172  -0.008867  -0.032424   0.537445
     7  F    9.037898  -0.009315  -0.001230   0.000640  -0.001038  -0.009796
     8  H   -0.009315   0.505066  -0.004020   0.001001   0.001484   0.002271
     9  H   -0.001230  -0.004020   0.470757  -0.008844   0.000967   0.001494
    10  H    0.000640   0.001001  -0.008844   0.487900  -0.009279   0.001257
    11  H   -0.001038   0.001484   0.000967  -0.009279   0.474091  -0.006465
    12  H   -0.009796   0.002271   0.001494   0.001257  -0.006465   0.511752
    13  O    0.003128  -0.000162   0.000011   0.000001   0.000015  -0.000168
    14  C    0.000791   0.000132  -0.000004   0.000008  -0.000006   0.000152
    15  H   -0.000245   0.000020   0.000003  -0.000001   0.000003   0.000044
    16  H   -0.000311   0.000041   0.000001   0.000000  -0.000001   0.000052
    17  H    0.031903  -0.006509   0.000628  -0.000727   0.000400   0.005983
    18  N   -0.016932  -0.000531   0.000192  -0.000004  -0.000295   0.005425
    19  C   -0.002781   0.002330  -0.000261   0.000224  -0.000257  -0.003399
    20  O   -0.000011   0.000027  -0.000016  -0.000003   0.000027  -0.000151
    21  C    0.001123  -0.000661  -0.000057   0.000071  -0.000066   0.000164
    22  H   -0.000467   0.000331  -0.000014   0.000010   0.000020  -0.000494
    23  H   -0.000286  -0.000622   0.000091   0.000006  -0.000025   0.000135
    24  H    0.000978  -0.003024  -0.000555  -0.000004   0.000015  -0.000478
    25  H   -0.004545   0.000101  -0.000125   0.000007   0.000138  -0.015713
    26  H    0.041928   0.007330   0.000042  -0.000653   0.000802  -0.006983
    27  N   -0.016799   0.005951  -0.000245  -0.000059   0.000302  -0.000031
    28  C   -0.005159  -0.003732  -0.000259   0.000242  -0.000292   0.002010
    29  O    0.000063  -0.000143   0.000028  -0.000005  -0.000012  -0.000025
    30  C   -0.000134  -0.000520   0.000052   0.000031   0.000009  -0.001606
    31  H   -0.000684  -0.000452   0.000015   0.000014  -0.000019   0.000352
    32  H   -0.000147   0.000052  -0.000023   0.000004   0.000099  -0.000865
    33  H    0.000592  -0.000342  -0.000018   0.000032  -0.000731  -0.002290
    34  H   -0.004261  -0.016361   0.000155   0.000023  -0.000123  -0.000047
              13         14         15         16         17         18
     1  C    0.051208  -0.003829  -0.000937  -0.000351   0.041795  -0.070288
     2  C   -0.019996   0.001492   0.000018  -0.000300   0.006541  -0.000186
     3  C   -0.001476   0.000867  -0.000001  -0.000002  -0.040547   0.028016
     4  C    0.000004   0.000002  -0.000050  -0.000015   0.008533  -0.000721
     5  C   -0.001809   0.000888   0.000074  -0.000023   0.013143   0.012103
     6  C   -0.022946   0.001494   0.000243   0.000280  -0.037663   0.038282
     7  F    0.003128   0.000791  -0.000245  -0.000311   0.031903  -0.016932
     8  H   -0.000162   0.000132   0.000020   0.000041  -0.006509  -0.000531
     9  H    0.000011  -0.000004   0.000003   0.000001   0.000628   0.000192
    10  H    0.000001   0.000008  -0.000001   0.000000  -0.000727  -0.000004
    11  H    0.000015  -0.000006   0.000003  -0.000001   0.000400  -0.000295
    12  H   -0.000168   0.000152   0.000044   0.000052   0.005983   0.005425
    13  O    8.126018   0.209156  -0.093976  -0.093636   0.037186  -0.006751
    14  C    0.209156   4.978871   0.398073   0.397830  -0.016662   0.002761
    15  H   -0.093976   0.398073   0.701110  -0.122179   0.002488   0.001580
    16  H   -0.093636   0.397830  -0.122179   0.701138  -0.000968   0.000324
    17  H    0.037186  -0.016662   0.002488  -0.000968   0.744953   0.304083
    18  N   -0.006751   0.002761   0.001580   0.000324   0.304083   7.305139
    19  C   -0.004669   0.001004  -0.000215  -0.000235  -0.154166   0.072593
    20  O    0.000105  -0.000226  -0.000075  -0.000014   0.014677  -0.166463
    21  C   -0.002034   0.003291  -0.001704   0.000522  -0.100552   0.110904
    22  H    0.000191   0.000406  -0.000470   0.000053  -0.037439  -0.115423
    23  H   -0.000288   0.000873   0.000004  -0.000070  -0.014555  -0.045685
    24  H   -0.000186  -0.000658   0.000339  -0.000148   0.037530  -0.050902
    25  H   -0.000390  -0.001226  -0.000066  -0.000125  -0.004533  -0.278437
    26  H    0.036943  -0.017315  -0.000848   0.002306  -0.071050   0.007766
    27  N   -0.007036   0.002925   0.000372   0.001598   0.007061  -0.000147
    28  C   -0.004523   0.001071  -0.000262  -0.000191   0.010023  -0.001003
    29  O    0.000112  -0.000224  -0.000016  -0.000087   0.000034   0.000000
    30  C   -0.001409   0.003438   0.000493  -0.001651   0.007299  -0.000882
    31  H    0.000241   0.000404   0.000050  -0.000447   0.000550  -0.000073
    32  H   -0.000459   0.000878  -0.000081  -0.000004   0.000673  -0.000190
    33  H   -0.000228  -0.000694  -0.000149   0.000344  -0.000649   0.000142
    34  H   -0.000357  -0.001310  -0.000131  -0.000068   0.003672  -0.000611
              19         20         21         22         23         24
     1  C    0.055879   0.001628  -0.005148   0.005347   0.003080   0.000010
     2  C   -0.013344  -0.000299   0.038818   0.001995  -0.003665  -0.001172
     3  C   -0.000035  -0.000572   0.001869  -0.000121   0.000439  -0.001889
     4  C    0.003082   0.000041   0.000722   0.000360   0.000127   0.002289
     5  C   -0.014728   0.000509  -0.005129  -0.001527  -0.000699   0.002840
     6  C   -0.010069  -0.001028  -0.032186  -0.003252   0.002871   0.000747
     7  F   -0.002781  -0.000011   0.001123  -0.000467  -0.000286   0.000978
     8  H    0.002330   0.000027  -0.000661   0.000331  -0.000622  -0.003024
     9  H   -0.000261  -0.000016  -0.000057  -0.000014   0.000091  -0.000555
    10  H    0.000224  -0.000003   0.000071   0.000010   0.000006  -0.000004
    11  H   -0.000257   0.000027  -0.000066   0.000020  -0.000025   0.000015
    12  H   -0.003399  -0.000151   0.000164  -0.000494   0.000135  -0.000478
    13  O   -0.004669   0.000105  -0.002034   0.000191  -0.000288  -0.000186
    14  C    0.001004  -0.000226   0.003291   0.000406   0.000873  -0.000658
    15  H   -0.000215  -0.000075  -0.001704  -0.000470   0.000004   0.000339
    16  H   -0.000235  -0.000014   0.000522   0.000053  -0.000070  -0.000148
    17  H   -0.154166   0.014677  -0.100552  -0.037439  -0.014555   0.037530
    18  N    0.072593  -0.166463   0.110904  -0.115423  -0.045685  -0.050902
    19  C    5.074429   0.474414  -0.018084   0.045550  -0.009197  -0.013966
    20  O    0.474414   8.114242  -0.048305   0.037671  -0.002080  -0.002322
    21  C   -0.018084  -0.048305   5.294504   0.438244   0.417322   0.375028
    22  H    0.045550   0.037671   0.438244   0.459086  -0.024105  -0.025668
    23  H   -0.009197  -0.002080   0.417322  -0.024105   0.574424  -0.066375
    24  H   -0.013966  -0.002322   0.375028  -0.025668  -0.066375   0.590469
    25  H    0.411187  -0.022618  -0.012515   0.016220  -0.002854  -0.002011
    26  H    0.009986   0.000000   0.007012   0.000572   0.000597  -0.000539
    27  N   -0.000939  -0.000000  -0.000808  -0.000068  -0.000194   0.000128
    28  C   -0.001149   0.000000  -0.000521  -0.000021   0.000027  -0.000022
    29  O   -0.000001  -0.000000   0.000001   0.000000  -0.000002   0.000002
    30  C   -0.000571   0.000003  -0.000640  -0.000015  -0.000042   0.000035
    31  H   -0.000021   0.000000  -0.000013   0.000001  -0.000002  -0.000001
    32  H    0.000022  -0.000002  -0.000053  -0.000003  -0.000011   0.000009
    33  H   -0.000005   0.000002   0.000047  -0.000000   0.000007  -0.000003
    34  H   -0.000349   0.000001   0.000248   0.000024  -0.000164   0.000091
              25         26         27         28         29         30
     1  C    0.045243   0.041507  -0.062929   0.049747   0.001468  -0.006629
     2  C   -0.010576  -0.054365   0.046001   0.005195  -0.000379  -0.026441
     3  C   -0.005168   0.001102   0.017357  -0.010658   0.000186  -0.002815
     4  C    0.004657   0.009163  -0.002717   0.003826  -0.000063   0.000618
     5  C   -0.017309  -0.034213   0.024351  -0.002251  -0.000479   0.001890
     6  C    0.001613   0.019564  -0.013338  -0.023405  -0.000702   0.033975
     7  F   -0.004545   0.041928  -0.016799  -0.005159   0.000063  -0.000134
     8  H    0.000101   0.007330   0.005951  -0.003732  -0.000143  -0.000520
     9  H   -0.000125   0.000042  -0.000245  -0.000259   0.000028   0.000052
    10  H    0.000007  -0.000653  -0.000059   0.000242  -0.000005   0.000031
    11  H    0.000138   0.000802   0.000302  -0.000292  -0.000012   0.000009
    12  H   -0.015713  -0.006983  -0.000031   0.002010  -0.000025  -0.001606
    13  O   -0.000390   0.036943  -0.007036  -0.004523   0.000112  -0.001409
    14  C   -0.001226  -0.017315   0.002925   0.001071  -0.000224   0.003438
    15  H   -0.000066  -0.000848   0.000372  -0.000262  -0.000016   0.000493
    16  H   -0.000125   0.002306   0.001598  -0.000191  -0.000087  -0.001651
    17  H   -0.004533  -0.071050   0.007061   0.010023   0.000034   0.007299
    18  N   -0.278437   0.007766  -0.000147  -0.001003   0.000000  -0.000882
    19  C    0.411187   0.009986  -0.000939  -0.001149  -0.000001  -0.000571
    20  O   -0.022618   0.000000  -0.000000   0.000000  -0.000000   0.000003
    21  C   -0.012515   0.007012  -0.000808  -0.000521   0.000001  -0.000640
    22  H    0.016220   0.000572  -0.000068  -0.000021   0.000000  -0.000015
    23  H   -0.002854   0.000597  -0.000194   0.000027  -0.000002  -0.000042
    24  H   -0.002011  -0.000539   0.000128  -0.000022   0.000002   0.000035
    25  H    0.789257   0.003226  -0.000611  -0.000311   0.000002   0.000316
    26  H    0.003226   0.752756   0.294540  -0.151491   0.015532  -0.097950
    27  N   -0.000611   0.294540   7.304863   0.076734  -0.166299   0.115493
    28  C   -0.000311  -0.151491   0.076734   5.068316   0.473550  -0.020281
    29  O    0.000002   0.015532  -0.166299   0.473550   8.114942  -0.048848
    30  C    0.000316  -0.097950   0.115493  -0.020281  -0.048848   5.290163
    31  H    0.000028  -0.038163  -0.115029   0.045572   0.037510   0.438377
    32  H   -0.000165  -0.013705  -0.047148  -0.009719  -0.001992   0.417818
    33  H    0.000084   0.036372  -0.051313  -0.012893  -0.002349   0.374766
    34  H   -0.000028  -0.002419  -0.277187   0.409905  -0.022554  -0.012906
              31         32         33         34
     1  C    0.006593   0.004447  -0.008079   0.042107
     2  C   -0.002205   0.004331  -0.007764   0.005587
     3  C   -0.001463  -0.000414   0.001527  -0.016227
     4  C    0.000377   0.000104   0.003303   0.005121
     5  C   -0.000585  -0.000244   0.001880  -0.005454
     6  C    0.000456  -0.006135   0.011974  -0.012920
     7  F   -0.000684  -0.000147   0.000592  -0.004261
     8  H   -0.000452   0.000052  -0.000342  -0.016361
     9  H    0.000015  -0.000023  -0.000018   0.000155
    10  H    0.000014   0.000004   0.000032   0.000023
    11  H   -0.000019   0.000099  -0.000731  -0.000123
    12  H    0.000352  -0.000865  -0.002290  -0.000047
    13  O    0.000241  -0.000459  -0.000228  -0.000357
    14  C    0.000404   0.000878  -0.000694  -0.001310
    15  H    0.000050  -0.000081  -0.000149  -0.000131
    16  H   -0.000447  -0.000004   0.000344  -0.000068
    17  H    0.000550   0.000673  -0.000649   0.003672
    18  N   -0.000073  -0.000190   0.000142  -0.000611
    19  C   -0.000021   0.000022  -0.000005  -0.000349
    20  O    0.000000  -0.000002   0.000002   0.000001
    21  C   -0.000013  -0.000053   0.000047   0.000248
    22  H    0.000001  -0.000003  -0.000000   0.000024
    23  H   -0.000002  -0.000011   0.000007  -0.000164
    24  H   -0.000001   0.000009  -0.000003   0.000091
    25  H    0.000028  -0.000165   0.000084  -0.000028
    26  H   -0.038163  -0.013705   0.036372  -0.002419
    27  N   -0.115029  -0.047148  -0.051313  -0.277187
    28  C    0.045572  -0.009719  -0.012893   0.409905
    29  O    0.037510  -0.001992  -0.002349  -0.022554
    30  C    0.438377   0.417818   0.374766  -0.012906
    31  H    0.459501  -0.024310  -0.025542   0.016100
    32  H   -0.024310   0.575114  -0.066467  -0.002781
    33  H   -0.025542  -0.066467   0.590816  -0.001945
    34  H    0.016100  -0.002781  -0.001945   0.787883
 Mulliken charges:
               1
     1  C   -0.704386
     2  C    0.159161
     3  C   -0.131270
     4  C   -0.449498
     5  C   -0.103866
     6  C    0.176185
     7  F   -0.046926
     8  H    0.240843
     9  H    0.232092
    10  H    0.193563
    11  H    0.233179
    12  H    0.235515
    13  O   -0.201821
    14  C    0.035346
    15  H    0.116493
    16  H    0.116340
    17  H    0.206869
    18  N   -0.133786
    19  C    0.097742
    20  O   -0.399160
    21  C   -0.461415
    22  H    0.203010
    23  H    0.170920
    24  H    0.159415
    25  H    0.107249
    26  H    0.200649
    27  N   -0.134775
    28  C    0.101922
    29  O   -0.399253
    30  C   -0.461432
    31  H    0.202867
    32  H    0.171366
    33  H    0.159574
    34  H    0.107287
 Sum of Mulliken charges =  -0.00000
 Mulliken charges with hydrogens summed into heavy atoms:
               1
     1  C   -0.704386
     2  C    0.400004
     3  C    0.100822
     4  C   -0.255935
     5  C    0.129313
     6  C    0.411701
     7  F   -0.046926
    13  O   -0.201821
    14  C    0.268179
    18  N    0.073083
    19  C    0.204991
    20  O   -0.399160
    21  C    0.071930
    27  N    0.065874
    28  C    0.209210
    29  O   -0.399253
    30  C    0.072374
 Electronic spatial extent (au):  <R**2>=           6424.3358
 Charge=             -0.0000 electrons
 Dipole moment (field-independent basis, Debye):
    X=              0.0295    Y=              1.0569    Z=             -0.0136  Tot=              1.0574
 Quadrupole moment (field-independent basis, Debye-Ang):
   XX=           -165.4945   YY=            -76.0822   ZZ=            -91.7085
   XY=             -0.0716   XZ=            -15.8684   YZ=             -0.0178
 Traceless Quadrupole moment (field-independent basis, Debye-Ang):
   XX=            -54.3995   YY=             35.0129   ZZ=             19.3866
   XY=             -0.0716   XZ=            -15.8684   YZ=             -0.0178
 Octapole moment (field-independent basis, Debye-Ang**2):
  XXX=              0.2657  YYY=            -68.2146  ZZZ=             -0.0982  XYY=              0.2958
  XXY=             47.2984  XXZ=             -0.4005  XZZ=              0.0052  YZZ=              3.9014
  YYZ=             -0.0238  XYZ=             21.3750
 Hexadecapole moment (field-independent basis, Debye-Ang**3):
 XXXX=          -6886.5299 YYYY=          -2251.1992 ZZZZ=           -685.0767 XXXY=             -1.9479
 XXXZ=           -513.6900 YYYX=             -1.0157 YYYZ=              0.0146 ZZZX=              5.6408
 ZZZY=             -0.0413 XXYY=          -1398.1733 XXZZ=           -924.5435 YYZZ=           -563.4782
 XXYZ=             -0.1136 YYXZ=            -11.4394 ZZXY=              0.2751
 N-N= 1.146063652246D+03 E-N=-4.314684713135D+03  KE= 8.612515517409D+02
 1\1\GINC-LOCALHOST\POpt\RM062X\6-311++G(d,p)\C11H17F1N2O3\LYWU\20-Mar-
 2024\1\\# opt=z-matrix 6-311++g(d,p) m062x\\test\\0,1\C\C,1,B1\C,2,B2,
 1,120.00000011\C,3,B3,2,120.,1,0.,0\C,4,B4,3,119.99999989,2,0.,0\C,1,B
 5,2,119.97770821,3,1.71722694,0\F,1,B6,2,119.9999999,3,-180.,0\H,2,B7,
 1,120.00000011,6,-178.28277306,0\H,3,B8,2,120.00000011,1,180.,0\H,4,B9
 ,3,120.,2,180.,0\H,5,B10,4,120.00000011,3,180.,0\H,6,B11,1,119.9155306
 3,2,-177.77151684,0\O,1,B12,2,119.9999999,3,-180.,0\C,13,B13,1,179.900
 00005,2,180.,0\H,14,B14,13,119.99996989,1,-90.04490481,0\H,14,B15,13,1
 19.99996989,1,90.04490481,0\H,7,B16,1,100.00000001,2,90.,0\N,17,B17,7,
 179.9,1,90.,0\C,18,B18,17,119.5,7,0.,0\O,19,B19,18,123.2,17,-180.,0\C,
 18,B20,17,121.9,19,-180.,0\H,21,B21,18,110.7,17,-180.,0\H,21,B22,18,11
 0.7,17,-60.,0\H,21,B23,18,110.7,17,60.,0\H,19,B24,18,113.46721803,17,0
 .,0\H,7,B25,1,100.00000001,2,-90.,0\N,26,B26,7,179.9,1,-90.,0\C,27,B27
 ,26,119.5,7,180.,0\O,28,B28,27,123.2,26,-180.,0\C,27,B29,26,121.9,28,-
 180.,0\H,30,B30,27,110.7,26,180.,0\H,30,B31,27,110.7,26,-60.,0\H,30,B3
 2,27,110.7,26,60.,0\H,28,B33,27,113.46721803,26,0.,0\\B1=1.38769432\B2
 =1.39006578\B3=1.38705668\B4=1.3870284\B5=1.38769679\B6=1.35242063\B7=
 1.0839962\B8=1.08243155\B9=1.08287822\B10=1.08244405\B11=1.0840497\B12
 =4.12827561\B13=1.20015904\B14=1.10313543\B15=1.10313086\B16=2.1180156
 9\B17=1.00750666\B18=1.35925908\B19=1.21212133\B20=1.44979819\B21=1.08
 550175\B22=1.09289641\B23=1.09297375\B24=1.10188276\B25=2.11736507\B26
 =1.0075036\B27=1.3592365\B28=1.2121448\B29=1.44977353\B30=1.08550229\B
 31=1.09290213\B32=1.09297425\B33=1.10187348\\Version=ES64L-G16RevB.01\
 State=1-A\HF=-864.2800617\RMSD=2.657e-09\RMSF=4.779e-03\Dipole=0.35783
 8,0.0124623,0.2118342\Quadrupole=22.5378739,-38.1095674,15.5716935,-8.
 0814684,6.0447791,14.0188354\PG=C01 [X(C11H17F1N2O3)]\\@


 ...THE PHYSICISTS HAVE MADE THEIR UNIVERSE, AND IF YOU DO NOT LIKE
 IT, YOU MUST MAKE YOUR OWN.
                               -- E. R. HARRISON IN "COSMOLOGY" (1980)
 Job cpu time:       0 days  2 hours  4 minutes  7.1 seconds.
 Elapsed time:       0 days  0 hours 31 minutes  5.2 seconds.
 File lengths (MBytes):  RWF=    148 Int=      0 D2E=      0 Chk=     18 Scr=      1
 Normal termination of Gaussian 16 at Wed Mar 20 11:23:56 2024.
