 Entering Gaussian System, Link 0=g16
 Input=model_H1.gjf
 Output=model_H1.log
 Initial command:
 /home/lywu/software/g16/l1.exe "/home/lywu/software/g16/scr/Gau-109476.inp" -scrdir="/home/lywu/software/g16/scr/"
 Entering Link 1 = /home/lywu/software/g16/l1.exe PID=    109477.
  
 Copyright (c) 1988-2017, Gaussian, Inc.  All Rights Reserved.
  
 This is part of the Gaussian(R) 16 program.  It is based on
 the Gaussian(R) 09 system (copyright 2009, Gaussian, Inc.),
 the Gaussian(R) 03 system (copyright 2003, Gaussian, Inc.),
 the Gaussian(R) 98 system (copyright 1998, Gaussian, Inc.),
 the Gaussian(R) 94 system (copyright 1995, Gaussian, Inc.),
 the Gaussian 92(TM) system (copyright 1992, Gaussian, Inc.),
 the Gaussian 90(TM) system (copyright 1990, Gaussian, Inc.),
 the Gaussian 88(TM) system (copyright 1988, Gaussian, Inc.),
 the Gaussian 86(TM) system (copyright 1986, Carnegie Mellon
 University), and the Gaussian 82(TM) system (copyright 1983,
 Carnegie Mellon University). Gaussian is a federally registered
 trademark of Gaussian, Inc.
  
 This software contains proprietary and confidential information,
 including trade secrets, belonging to Gaussian, Inc.
  
 This software is provided under written license and may be
 used, copied, transmitted, or stored only in accord with that
 written license.
  
 The following legend is applicable only to US Government
 contracts under FAR:
  
                    RESTRICTED RIGHTS LEGEND
  
 Use, reproduction and disclosure by the US Government is
 subject to restrictions as set forth in subparagraphs (a)
 and (c) of the Commercial Computer Software - Restricted
 Rights clause in FAR 52.227-19.
  
 Gaussian, Inc.
 340 Quinnipiac St., Bldg. 40, Wallingford CT 06492
  
  
 ---------------------------------------------------------------
 Warning -- This program may not be used in any manner that
 competes with the business of Gaussian, Inc. or will provide
 assistance to any competitor of Gaussian, Inc.  The licensee
 of this program is prohibited from giving any competitor of
 Gaussian, Inc. access to this program.  By using this program,
 the user acknowledges that Gaussian, Inc. is engaged in the
 business of creating and licensing software in the field of
 computational chemistry and represents and warrants to the
 licensee that it is not a competitor of Gaussian, Inc. and that
 it will not use this program in any manner prohibited above.
 ---------------------------------------------------------------
  

 Cite this work as:
 Gaussian 16, Revision B.01,
 M. J. Frisch, G. W. Trucks, H. B. Schlegel, G. E. Scuseria, 
 M. A. Robb, J. R. Cheeseman, G. Scalmani, V. Barone, 
 G. A. Petersson, H. Nakatsuji, X. Li, M. Caricato, A. V. Marenich, 
 J. Bloino, B. G. Janesko, R. Gomperts, B. Mennucci, H. P. Hratchian, 
 J. V. Ortiz, A. F. Izmaylov, J. L. Sonnenberg, D. Williams-Young, 
 F. Ding, F. Lipparini, F. Egidi, J. Goings, B. Peng, A. Petrone, 
 T. Henderson, D. Ranasinghe, V. G. Zakrzewski, J. Gao, N. Rega, 
 G. Zheng, W. Liang, M. Hada, M. Ehara, K. Toyota, R. Fukuda, 
 J. Hasegawa, M. Ishida, T. Nakajima, Y. Honda, O. Kitao, H. Nakai, 
 T. Vreven, K. Throssell, J. A. Montgomery, Jr., J. E. Peralta, 
 F. Ogliaro, M. J. Bearpark, J. J. Heyd, E. N. Brothers, K. N. Kudin, 
 V. N. Staroverov, T. A. Keith, R. Kobayashi, J. Normand, 
 K. Raghavachari, A. P. Rendell, J. C. Burant, S. S. Iyengar, 
 J. Tomasi, M. Cossi, J. M. Millam, M. Klene, C. Adamo, R. Cammi, 
 J. W. Ochterski, R. L. Martin, K. Morokuma, O. Farkas, 
 J. B. Foresman, and D. J. Fox, Gaussian, Inc., Wallingford CT, 2016.
 
 ******************************************
 Gaussian 16:  ES64L-G16RevB.01 20-Dec-2017
                20-Mar-2024 
 ******************************************
 %mem=4GB
 %nprocshared=4
 Will use up to    4 processors via shared memory.
 %chk=model_H1.chk
 ----------------------------------
 # opt=z-matrix 6-311++g(d,p) m062x
 ----------------------------------
 1/10=7,18=40,26=3,38=1/1,3;
 2/12=2,17=6,18=5,29=3,40=1/2;
 3/5=4,6=6,7=1111,11=2,25=1,30=1,71=1,74=-55/1,2,3;
 4//1;
 5/5=2,38=5/2;
 6/7=2,8=2,9=2,10=2,28=1/1;
 7/29=1/1,2,3,16;
 1/10=7,18=40,26=3/3(2);
 2/29=3/2;
 99//99;
 2/29=3/2;
 3/5=4,6=6,7=1111,11=2,25=1,30=1,71=1,74=-55/1,2,3;
 4/5=5,16=3,69=1/1;
 5/5=2,38=5/2;
 7//1,2,3,16;
 1/18=40,26=3/3(-5);
 2/29=3/2;
 6/7=2,8=2,9=2,10=2,19=2,28=1/1;
 99/9=1/99;
 ----
 test
 ----
 Symbolic Z-matrix:
 Charge =  0 Multiplicity = 1
 C
 C                    1    B1
 C                    2    B2       1    A1
 C                    3    B3       2    A2       1    D1       0
 C                    4    B4       3    A3       2    D2       0
 C                    1    B5       2    A4       3    D3       0
 F                    1    B6       2    A5       3    D4       0
 H                    2    B7       1    A6       6    D5       0
 H                    3    B8       2    A7       1    D6       0
 H                    4    B9       3    A8       2    D7       0
 H                    5    B10      4    A9       3    D8       0
 H                    6    B11      1    A10      2    D9       0
 O                    1    B12      2    A11      3    D10      0
 C                    13   B13      1    A12      2    D11      0
 H                    14   B14      13   A13      1    D12      0
 H                    14   B15      13   A14      1    D13      0
 H                    7    B16      1    A15      2    D14      0
 N                    17   B17      7    A16      1    D15      0
 C                    18   B18      17   A17      7    D16      0
 O                    19   B19      18   A18      17   D17      0
 C                    18   B20      17   A19      19   D18      0
 H                    21   B21      18   A20      17   D19      0
 H                    21   B22      18   A21      17   D20      0
 H                    21   B23      18   A22      17   D21      0
 H                    19   B24      18   A23      17   D22      0
       Variables:
  B1                    1.3                      
  B2                    1.3                      
  B3                    1.3                      
  B4                    1.3                      
  B5                    1.3                      
  B6                    1.4                      
  B7                    1.                       
  B8                    1.                       
  B9                    1.                       
  B10                   1.                       
  B11                   1.00101                  
  B12                   4.2                      
  B13                   1.2                      
  B14                   1.                       
  B15                   1.                       
  B16                   2.12                     
  B17                   1.                       
  B18                   1.33                     
  B19                   1.23                     
  B20                   1.45                     
  B21                   1.                       
  B22                   1.                       
  B23                   1.                       
  B24                   1.                       
       Constants:
  A1                  120.                       
  A2                  120.                       
  A3                  120.                       
  A4                  119.97771                  
  A5                  120.                       
  A6                  120.                       
  A7                  120.                       
  A8                  120.                       
  A9                  120.                       
  A10                 119.91553                  
  A11                 120.                       
  A12                 179.9                      
  A13                 119.99997                  
  A14                 119.99997                  
  A15                 100.                       
  A16                 179.9                      
  A17                 119.5                      
  A18                 123.2                      
  A19                 121.9                      
  A20                 110.7                      
  A21                 110.7                      
  A22                 110.7                      
  A23                 113.46722                  
  D1                    0.                       
  D2                    0.                       
  D3                    1.71723                  
  D4                 -180.                       
  D5                 -178.28277                  
  D6                  180.                       
  D7                  180.                       
  D8                  180.                       
  D9                 -177.77152                  
  D10                -180.                       
  D11                 180.                       
  D12                 -90.0449                   
  D13                  90.0449                   
  D14                  90.                       
  D15                  90.                       
  D16                   0.                       
  D17                -180.                       
  D18                -180.                       
  D19                -180.                       
  D20                 -60.                       
  D21                  60.                       
  D22                   0.                       
 

 GradGradGradGradGradGradGradGradGradGradGradGradGradGradGradGradGradGrad
 Berny optimization.
 Initialization pass.
                       ----------------------------
                       !    Initial Parameters    !
                       ! (Angstroms and Degrees)  !
 ----------------------                            ----------------------
 !      Name          Value   Derivative information (Atomic Units)     !
 ------------------------------------------------------------------------
 !       B1          1.3      estimate D2E/DX2                          !
 !       B2          1.3      estimate D2E/DX2                          !
 !       B3          1.3      estimate D2E/DX2                          !
 !       B4          1.3      estimate D2E/DX2                          !
 !       B5          1.3      estimate D2E/DX2                          !
 !       B6          1.4      estimate D2E/DX2                          !
 !       B7          1.0      estimate D2E/DX2                          !
 !       B8          1.0      estimate D2E/DX2                          !
 !       B9          1.0      estimate D2E/DX2                          !
 !       B10         1.0      estimate D2E/DX2                          !
 !       B11         1.001    estimate D2E/DX2                          !
 !       B12         4.2      estimate D2E/DX2                          !
 !       B13         1.2      estimate D2E/DX2                          !
 !       B14         1.0      estimate D2E/DX2                          !
 !       B15         1.0      estimate D2E/DX2                          !
 !       B16         2.12     estimate D2E/DX2                          !
 !       B17         1.0      estimate D2E/DX2                          !
 !       B18         1.33     estimate D2E/DX2                          !
 !       B19         1.23     estimate D2E/DX2                          !
 !       B20         1.45     estimate D2E/DX2                          !
 !       B21         1.0      estimate D2E/DX2                          !
 !       B22         1.0      estimate D2E/DX2                          !
 !       B23         1.0      estimate D2E/DX2                          !
 !       B24         1.0      estimate D2E/DX2                          !
 !       A1        120.0      Frozen                                    !
 !       A2        120.0      Frozen                                    !
 !       A3        120.0      Frozen                                    !
 !       A4        119.9777   Frozen                                    !
 !       A5        120.0      Frozen                                    !
 !       A6        120.0      Frozen                                    !
 !       A7        120.0      Frozen                                    !
 !       A8        120.0      Frozen                                    !
 !       A9        120.0      Frozen                                    !
 !       A10       119.9155   Frozen                                    !
 !       A11       120.0      Frozen                                    !
 !       A12       179.9      Frozen                                    !
 !       A13       120.0      Frozen                                    !
 !       A14       120.0      Frozen                                    !
 !       A15       100.0      Frozen                                    !
 !       A16       179.9      Frozen                                    !
 !       A17       119.5      Frozen                                    !
 !       A18       123.2      Frozen                                    !
 !       A19       121.9      Frozen                                    !
 !       A20       110.7      Frozen                                    !
 !       A21       110.7      Frozen                                    !
 !       A22       110.7      Frozen                                    !
 !       A23       113.4672   Frozen                                    !
 !       D1          0.0      Frozen                                    !
 !       D2          0.0      Frozen                                    !
 !       D3          1.7172   Frozen                                    !
 !       D4       -180.0      Frozen                                    !
 !       D5       -178.2828   Frozen                                    !
 !       D6        180.0      Frozen                                    !
 !       D7        180.0      Frozen                                    !
 !       D8        180.0      Frozen                                    !
 !       D9       -177.7715   Frozen                                    !
 !       D10      -180.0      Frozen                                    !
 !       D11       180.0      Frozen                                    !
 !       D12       -90.0449   Frozen                                    !
 !       D13        90.0449   Frozen                                    !
 !       D14        90.0      Frozen                                    !
 !       D15        90.0      Frozen                                    !
 !       D16         0.0      Frozen                                    !
 !       D17      -180.0      Frozen                                    !
 !       D18      -180.0      Frozen                                    !
 !       D19      -180.0      Frozen                                    !
 !       D20       -60.0      Frozen                                    !
 !       D21        60.0      Frozen                                    !
 !       D22         0.0      Frozen                                    !
 ------------------------------------------------------------------------
 Trust Radius=3.00D-01 FncErr=1.00D-07 GrdErr=1.00D-06 EigMax=2.50D+02 EigMin=1.00D-04
 Number of steps in this run=     79 maximum allowed number of steps=    138.
 GradGradGradGradGradGradGradGradGradGradGradGradGradGradGradGradGradGrad

 ---------------------------------------------------------------------------------------------------
                            Z-MATRIX (ANGSTROMS AND DEGREES)
   CD    Cent   Atom    N1       Length/X        N2       Alpha/Y        N3        Beta/Z          J
 ---------------------------------------------------------------------------------------------------
      1      1  C 
      2      2  C        1   1.300000(     1)
      3      3  C        2   1.300000(     2)      1  120.000(    25)
      4      4  C        3   1.300000(     3)      2  120.000(    26)      1    0.000(    48)      0
      5      5  C        4   1.300000(     4)      3  120.000(    27)      2    0.000(    49)      0
      6      6  C        1   1.300000(     5)      2  119.978(    28)      3    1.717(    50)      0
      7      7  F        1   1.400000(     6)      2  120.000(    29)      3 -180.000(    51)      0
      8      8  H        2   1.000000(     7)      1  120.000(    30)      6 -178.283(    52)      0
      9      9  H        3   1.000000(     8)      2  120.000(    31)      1  180.000(    53)      0
     10     10  H        4   1.000000(     9)      3  120.000(    32)      2  180.000(    54)      0
     11     11  H        5   1.000000(    10)      4  120.000(    33)      3  180.000(    55)      0
     12     12  H        6   1.001007(    11)      1  119.916(    34)      2 -177.772(    56)      0
     13     13  O        1   4.200000(    12)      2  120.000(    35)      3 -180.000(    57)      0
     14     14  C       13   1.200000(    13)      1  179.900(    36)      2  180.000(    58)      0
     15     15  H       14   1.000000(    14)     13  120.000(    37)      1  -90.045(    59)      0
     16     16  H       14   1.000000(    15)     13  120.000(    38)      1   90.045(    60)      0
     17     17  H        7   2.120000(    16)      1  100.000(    39)      2   90.000(    61)      0
     18     18  N       17   1.000000(    17)      7  179.900(    40)      1   90.000(    62)      0
     19     19  C       18   1.330000(    18)     17  119.500(    41)      7    0.000(    63)      0
     20     20  O       19   1.230000(    19)     18  123.200(    42)     17 -180.000(    64)      0
     21     21  C       18   1.450000(    20)     17  121.900(    43)     19 -180.000(    65)      0
     22     22  H       21   1.000000(    21)     18  110.700(    44)     17 -180.000(    66)      0
     23     23  H       21   1.000000(    22)     18  110.700(    45)     17  -60.000(    67)      0
     24     24  H       21   1.000000(    23)     18  110.700(    46)     17   60.000(    68)      0
     25     25  H       19   1.000000(    24)     18  113.467(    47)     17   -0.000(    69)      0
 ---------------------------------------------------------------------------------------------------
                         Z-Matrix orientation:                         
 ---------------------------------------------------------------------
 Center     Atomic      Atomic             Coordinates (Angstroms)
 Number     Number       Type             X           Y           Z
 ---------------------------------------------------------------------
      1          6           0        0.000000    0.000000    0.000000
      2          6           0        0.000000    0.000000    1.300000
      3          6           0        1.125833    0.000000    1.950000
      4          6           0        2.251666    0.000000    1.300000
      5          6           0        2.251666    0.000000    0.000000
      6          6           0        1.125580   -0.033745   -0.649562
      7          9           0       -1.212436    0.000000   -0.700000
      8          1           0       -0.866025    0.000000    1.800000
      9          1           0        1.125833    0.000000    2.950000
     10          1           0        3.117691    0.000000    1.800000
     11          1           0        3.117691    0.000000   -0.500000
     12          1           0        1.125833   -0.000000   -1.650000
     13          8           0       -3.637307    0.000000   -2.100000
     14          6           0       -4.675488    0.000000   -2.701813
     15          1           0       -5.108404    0.866025   -2.951981
     16          1           0       -5.108404   -0.866025   -2.951981
     17          1           0       -1.531249    2.087792   -0.884067
     18          7           0       -1.680760    3.072599   -0.972403
     19          6           0       -1.199589    3.715582   -2.032566
     20          8           0       -1.343395    4.924232   -2.209721
     21          6           0       -2.411147    3.829308    0.025809
     22          1           0       -2.460643    4.795025   -0.229027
     23          1           0       -3.344400    3.482475    0.119330
     24          1           0       -1.962551    3.763826    0.917141
     25          1           0       -0.710188    3.121088   -2.670583
 ---------------------------------------------------------------------
                    Distance matrix (angstroms):
                    1          2          3          4          5
     1  C    0.000000
     2  C    1.300000   0.000000
     3  C    2.251666   1.300000   0.000000
     4  C    2.600000   2.251666   1.300000   0.000000
     5  C    2.251666   2.600000   2.251666   1.300000   0.000000
     6  C    1.300000   2.251413   2.599781   2.251666   1.300438
     7  F    1.400000   2.338803   3.534119   4.000000   3.534119
     8  H    1.997498   1.000000   1.997498   3.157531   3.600000
     9  H    3.157531   1.997498   1.000000   1.997498   3.157531
    10  H    3.600000   3.157531   1.997498   1.000000   1.997498
    11  H    3.157531   3.600000   3.157531   1.997498   1.000000
    12  H    1.997498   3.157531   3.600000   3.157531   1.997498
    13  O    4.200000   4.978956   6.252200   6.800000   6.252200
    14  C    5.399999   6.154242   7.436040   7.999998   7.435406
    15  H    5.963219   6.702621   7.977790   8.544002   7.977144
    16  H    5.963219   6.702621   7.977790   8.544002   7.977144
    17  H    2.735905   3.387292   4.410317   4.841433   4.410317
    18  N    3.634747   4.174881   5.085102   5.483489   5.084329
    19  C    4.401805   5.133279   5.922328   6.068171   5.463335
    20  O    5.561982   6.194426   6.902784   7.034960   6.485013
    21  C    4.525251   4.701148   5.556648   6.166765   6.033746
    22  H    5.394393   5.602227   6.372066   6.894639   6.726854
    23  H    4.829791   4.970576   5.954995   6.696086   6.592255
    24  H    4.342712   4.261992   4.977078   5.663267   5.724261
    25  H    4.168641   5.100106   5.870430   5.854853   5.064167
                    6          7          8          9         10
     6  C    0.000000
     7  F    2.338803   0.000000
     8  H    3.157212   2.523886   0.000000
     9  H    3.599720   4.334743   2.300000   0.000000
    10  H    3.157531   5.000000   3.983717   2.300000   0.000000
    11  H    1.998003   4.334743   4.600000   3.983717   2.300000
    12  H    1.001007   2.523886   3.983717   4.600000   3.983717
    13  O    4.978956   2.800000   4.784349   6.941902   7.800000
    14  C    6.153476   3.999999   5.897315   8.099279   8.999998
    15  H    6.706212   4.582574   6.428771   8.628389   9.539390
    16  H    6.697491   4.582574   6.428771   8.628389   9.539390
    17  H    3.408028   2.120000   3.464912   5.110678   5.759839
    18  N    4.198707   3.119999   4.217923   5.718660   6.336577
    19  C    4.623479   3.947334   5.348399   6.636196   6.865349
    20  O    5.754257   5.152132   6.368187   7.547706   7.760620
    21  C    5.280885   4.077660   4.494303   5.977016   6.955531
    22  H    6.029500   4.977158   5.445367   6.779475   7.630663
    23  H    5.738965   4.164638   4.592888   6.334296   7.530665
    24  H    5.139325   4.164638   4.018482   5.276080   6.383940
    25  H    4.172235   3.725136   5.454502   6.686039   6.661829
                   11         12         13         14         15
    11  H    0.000000
    12  H    2.300000   0.000000
    13  O    6.941902   4.784349   0.000000
    14  C    8.098249   5.895900   1.200000   0.000000
    15  H    8.627332   6.427353   1.907878   1.000000   0.000000
    16  H    8.627332   6.427353   1.907878   1.000000   1.732051
    17  H    5.110678   3.464912   3.205129   4.189191   4.308714
    18  N    5.717444   4.216274   3.813189   4.626027   4.531715
    19  C    5.898577   4.399942   4.444386   5.131795   4.923833
    20  O    6.860940   5.537006   5.433427   5.965992   5.585274
    21  C    6.745971   5.475597   4.548201   5.218310   4.992341
    22  H    7.360944   6.154205   5.279900   5.832022   5.464628
    23  H    7.366806   5.936425   4.139910   4.675284   4.403461
    24  H    6.479471   5.504064   5.106304   5.884152   5.767473
    25  H    5.394931   3.762148   4.316802   5.046363   4.950636
                   16         17         18         19         20
    16  H    0.000000
    17  H    5.079109   0.000000
    18  N    5.583926   1.000000   0.000000
    19  C    6.092232   2.019591   1.330000   0.000000
    20  O    6.946461   3.136564   2.252403   1.230000   0.000000
    21  C    6.179691   2.152898   1.450000   2.391174   2.708605
    22  H    6.817082   2.936317   2.031644   2.451165   2.277737
    23  H    5.608397   2.497892   2.031644   3.047165   3.392221
    24  H    6.804559   2.497892   2.031644   3.047165   3.392221
    25  H    5.943111   2.221144   1.956573   1.000000   1.965877
                   21         22         23         24         25
    21  C    0.000000
    22  H    1.000000   0.000000
    23  H    1.000000   1.620237   0.000000
    24  H    1.000000   1.620237   1.620237   0.000000
    25  H    3.265787   3.439091   3.853996   3.853996   0.000000
 Stoichiometry    C9H12FNO2
 Framework group  C1[X(C9H12FNO2)]
 Deg. of freedom    69
 Full point group                 C1      NOp   1
 Largest Abelian subgroup         C1      NOp   1
 Largest concise Abelian subgroup C1      NOp   1
                         Standard orientation:                         
 ---------------------------------------------------------------------
 Center     Atomic      Atomic             Coordinates (Angstroms)
 Number     Number       Type             X           Y           Z
 ---------------------------------------------------------------------
      1          6           0       -1.478032    0.684443   -0.051588
      2          6           0       -2.104132    0.515941    1.075180
      3          6           0       -3.275438   -0.047817    1.089957
      4          6           0       -3.820644   -0.443073   -0.022033
      5          6           0       -3.194545   -0.274571   -1.148801
      6          6           0       -2.037845    0.319455   -1.166663
      7          9           0       -0.216625    1.291568   -0.067502
      8          1           0       -1.684742    0.819984    1.930557
      9          1           0       -3.757053   -0.177434    1.956702
     10          1           0       -4.721649   -0.876733   -0.010666
     11          1           0       -3.613934   -0.578614   -2.004178
     12          1           0       -1.541623    0.418805   -2.030323
     13          8           0        2.306188    2.505816   -0.099330
     14          6           0        3.387467    3.025997   -0.115053
     15          1           0        4.212376    2.467341   -0.028858
     16          1           0        3.463577    4.018274   -0.213001
     17          1           0        1.017658   -0.418262    0.150277
     18          7           0        1.599928   -1.224960    0.251268
     19          6           0        2.021682   -1.868229   -0.833734
     20          8           0        2.739153   -2.866281   -0.788708
     21          6           0        2.003111   -1.720845    1.552822
     22          1           0        2.581073   -2.531467    1.458734
     23          1           0        2.519573   -1.024918    2.051772
     24          1           0        1.203544   -1.968806    2.099822
     25          1           0        1.698865   -1.461645   -1.688414
 ---------------------------------------------------------------------
 Rotational constants (GHZ):           0.7642922           0.3965404           0.3045691
 Standard basis: 6-311++G(d,p) (5D, 7F)
 There are   383 symmetry adapted cartesian basis functions of A   symmetry.
 There are   370 symmetry adapted basis functions of A   symmetry.
   370 basis functions,   576 primitive gaussians,   383 cartesian basis functions
    49 alpha electrons       49 beta electrons
       nuclear repulsion energy       746.7549931467 Hartrees.
 NAtoms=   25 NActive=   25 NUniq=   25 SFac= 1.00D+00 NAtFMM=   60 NAOKFM=F Big=F
 Integral buffers will be    131072 words long.
 Raffenetti 2 integral format.
 Two-electron integral symmetry is turned on.
 One-electron integrals computed using PRISM.
 NBasis=   370 RedAO= T EigKep=  3.60D-06  NBF=   370
 NBsUse=   369 1.00D-06 EigRej=  5.51D-07 NBFU=   369
 ExpMin= 3.60D-02 ExpMax= 1.14D+04 ExpMxC= 1.72D+03 IAcc=3 IRadAn=         5 AccDes= 0.00D+00
 Harris functional with IExCor= 1009 and IRadAn=       5 diagonalized for initial guess.
 HarFok:  IExCor= 1009 AccDes= 0.00D+00 IRadAn=         5 IDoV= 1 UseB2=F ITyADJ=14
 ICtDFT=  3500011 ScaDFX=  1.000000  1.000000  1.000000  1.000000
 FoFCou: FMM=F IPFlag=           0 FMFlag=      100000 FMFlg1=           0
         NFxFlg=           0 DoJE=T BraDBF=F KetDBF=T FulRan=T
         wScrn=  0.000000 ICntrl=       500 IOpCl=  0 I1Cent=   200000004 NGrid=           0
         NMat0=    1 NMatS0=      1 NMatT0=    0 NMatD0=    1 NMtDS0=    0 NMtDT0=    0
 Petite list used in FoFCou.
 Requested convergence on RMS density matrix=1.00D-08 within 128 cycles.
 Requested convergence on MAX density matrix=1.00D-06.
 Requested convergence on             energy=1.00D-06.
 No special actions if energy rises.
 SCF Done:  E(RM062X) =  -654.980312479     A.U. after   15 cycles
            NFock= 15  Conv=0.35D-08     -V/T= 1.9986

 **********************************************************************

            Population analysis using the SCF Density.

 **********************************************************************

 Orbital symmetries:
       Occupied  (A) (A) (A) (A) (A) (A) (A) (A) (A) (A) (A) (A)
                 (A) (A) (A) (A) (A) (A) (A) (A) (A) (A) (A) (A)
                 (A) (A) (A) (A) (A) (A) (A) (A) (A) (A) (A) (A)
                 (A) (A) (A) (A) (A) (A) (A) (A) (A) (A) (A) (A)
                 (A)
       Virtual   (A) (A) (A) (A) (A) (A) (A) (A) (A) (A) (A) (A)
                 (A) (A) (A) (A) (A) (A) (A) (A) (A) (A) (A) (A)
                 (A) (A) (A) (A) (A) (A) (A) (A) (A) (A) (A) (A)
                 (A) (A) (A) (A) (A) (A) (A) (A) (A) (A) (A) (A)
                 (A) (A) (A) (A) (A) (A) (A) (A) (A) (A) (A) (A)
                 (A) (A) (A) (A) (A) (A) (A) (A) (A) (A) (A) (A)
                 (A) (A) (A) (A) (A) (A) (A) (A) (A) (A) (A) (A)
                 (A) (A) (A) (A) (A) (A) (A) (A) (A) (A) (A) (A)
                 (A) (A) (A) (A) (A) (A) (A) (A) (A) (A) (A) (A)
                 (A) (A) (A) (A) (A) (A) (A) (A) (A) (A) (A) (A)
                 (A) (A) (A) (A) (A) (A) (A) (A) (A) (A) (A) (A)
                 (A) (A) (A) (A) (A) (A) (A) (A) (A) (A) (A) (A)
                 (A) (A) (A) (A) (A) (A) (A) (A) (A) (A) (A) (A)
                 (A) (A) (A) (A) (A) (A) (A) (A) (A) (A) (A) (A)
                 (A) (A) (A) (A) (A) (A) (A) (A) (A) (A) (A) (A)
                 (A) (A) (A) (A) (A) (A) (A) (A) (A) (A) (A) (A)
                 (A) (A) (A) (A) (A) (A) (A) (A) (A) (A) (A) (A)
                 (A) (A) (A) (A) (A) (A) (A) (A) (A) (A) (A) (A)
                 (A) (A) (A) (A) (A) (A) (A) (A) (A) (A) (A) (A)
                 (A) (A) (A) (A) (A) (A) (A) (A) (A) (A) (A) (A)
                 (A) (A) (A) (A) (A) (A) (A) (A) (A) (A) (A) (A)
                 (A) (A) (A) (A) (A) (A) (A) (A) (A) (A) (A) (A)
                 (A) (A) (A) (A) (A) (A) (A) (A) (A) (A) (A) (A)
                 (A) (A) (A) (A) (A) (A) (A) (A) (A) (A) (A) (A)
                 (A) (A) (A) (A) (A) (A) (A) (A) (A) (A) (A) (A)
                 (A) (A) (A) (A) (A) (A) (A) (A) (A) (A) (A) (A)
                 (A) (A) (A) (A) (A) (A) (A) (A)
 The electronic state is 1-A.
 Alpha  occ. eigenvalues --  -25.24995 -19.63994 -19.56926 -14.75960 -10.61899
 Alpha  occ. eigenvalues --  -10.61745 -10.61330 -10.53098 -10.53087 -10.52948
 Alpha  occ. eigenvalues --  -10.52941 -10.52930 -10.52219  -1.35509  -1.19078
 Alpha  occ. eigenvalues --   -1.14042  -1.03790  -1.02376  -0.90052  -0.89044
 Alpha  occ. eigenvalues --   -0.82452  -0.75635  -0.74465  -0.72924  -0.68190
 Alpha  occ. eigenvalues --   -0.66880  -0.63537  -0.60946  -0.59514  -0.59015
 Alpha  occ. eigenvalues --   -0.56628  -0.54613  -0.53490  -0.53313  -0.53152
 Alpha  occ. eigenvalues --   -0.52834  -0.50026  -0.48266  -0.47852  -0.47438
 Alpha  occ. eigenvalues --   -0.46004  -0.45217  -0.44493  -0.42802  -0.35086
 Alpha  occ. eigenvalues --   -0.34547  -0.33365  -0.31993  -0.30703
 Alpha virt. eigenvalues --   -0.01122  -0.00779  -0.00009   0.00430   0.01326
 Alpha virt. eigenvalues --    0.01726   0.01808   0.02415   0.02645   0.03152
 Alpha virt. eigenvalues --    0.03743   0.04166   0.04948   0.05532   0.05804
 Alpha virt. eigenvalues --    0.06189   0.07255   0.07919   0.08133   0.08736
 Alpha virt. eigenvalues --    0.09302   0.09614   0.10157   0.10841   0.11330
 Alpha virt. eigenvalues --    0.11539   0.12035   0.12276   0.12741   0.13109
 Alpha virt. eigenvalues --    0.13473   0.13679   0.13798   0.14366   0.14640
 Alpha virt. eigenvalues --    0.15209   0.15675   0.15942   0.16128   0.16730
 Alpha virt. eigenvalues --    0.17020   0.17568   0.18053   0.18390   0.18926
 Alpha virt. eigenvalues --    0.19204   0.20323   0.20605   0.20932   0.21544
 Alpha virt. eigenvalues --    0.22256   0.23172   0.23497   0.24540   0.25620
 Alpha virt. eigenvalues --    0.25993   0.26237   0.26874   0.27523   0.27688
 Alpha virt. eigenvalues --    0.28661   0.29201   0.30590   0.31263   0.32024
 Alpha virt. eigenvalues --    0.32589   0.32803   0.33032   0.34050   0.34292
 Alpha virt. eigenvalues --    0.35183   0.35674   0.36209   0.36792   0.38017
 Alpha virt. eigenvalues --    0.38771   0.39044   0.40374   0.40846   0.42035
 Alpha virt. eigenvalues --    0.42325   0.43540   0.44062   0.45527   0.46237
 Alpha virt. eigenvalues --    0.48481   0.50006   0.51937   0.52101   0.53694
 Alpha virt. eigenvalues --    0.54628   0.55232   0.56028   0.57666   0.58122
 Alpha virt. eigenvalues --    0.59020   0.60390   0.60630   0.60858   0.61708
 Alpha virt. eigenvalues --    0.61860   0.62414   0.63882   0.64618   0.65415
 Alpha virt. eigenvalues --    0.66762   0.67682   0.68754   0.69852   0.71319
 Alpha virt. eigenvalues --    0.72103   0.73098   0.74136   0.75616   0.76253
 Alpha virt. eigenvalues --    0.76553   0.76960   0.80212   0.80538   0.80851
 Alpha virt. eigenvalues --    0.81177   0.83049   0.84852   0.86457   0.86675
 Alpha virt. eigenvalues --    0.88965   0.89397   0.91447   0.93363   0.94445
 Alpha virt. eigenvalues --    0.95560   0.98253   0.99613   1.00349   1.01238
 Alpha virt. eigenvalues --    1.02087   1.02813   1.05352   1.07012   1.07804
 Alpha virt. eigenvalues --    1.08415   1.10191   1.10693   1.10971   1.13788
 Alpha virt. eigenvalues --    1.16090   1.17134   1.18319   1.19036   1.22089
 Alpha virt. eigenvalues --    1.23263   1.23522   1.24198   1.26620   1.27399
 Alpha virt. eigenvalues --    1.30127   1.31962   1.34775   1.36153   1.37627
 Alpha virt. eigenvalues --    1.38748   1.43016   1.51316   1.52065   1.53229
 Alpha virt. eigenvalues --    1.54580   1.56419   1.58237   1.59233   1.62268
 Alpha virt. eigenvalues --    1.62585   1.63288   1.63791   1.64595   1.65231
 Alpha virt. eigenvalues --    1.66794   1.67502   1.67771   1.69999   1.71017
 Alpha virt. eigenvalues --    1.72524   1.73329   1.74767   1.75792   1.76125
 Alpha virt. eigenvalues --    1.77048   1.79833   1.81278   1.83711   1.84668
 Alpha virt. eigenvalues --    1.84803   1.85291   1.86342   1.87157   1.90251
 Alpha virt. eigenvalues --    1.93553   1.93909   1.96549   1.98630   1.98992
 Alpha virt. eigenvalues --    2.03005   2.03189   2.04672   2.05005   2.06389
 Alpha virt. eigenvalues --    2.08205   2.12106   2.14709   2.15165   2.15925
 Alpha virt. eigenvalues --    2.16963   2.17508   2.19387   2.21060   2.24225
 Alpha virt. eigenvalues --    2.27904   2.36371   2.40236   2.40745   2.42542
 Alpha virt. eigenvalues --    2.45939   2.47899   2.50121   2.50696   2.54490
 Alpha virt. eigenvalues --    2.57386   2.58030   2.59075   2.61957   2.64051
 Alpha virt. eigenvalues --    2.64958   2.66604   2.69968   2.70267   2.70865
 Alpha virt. eigenvalues --    2.72502   2.74578   2.76618   2.76768   2.78066
 Alpha virt. eigenvalues --    2.78588   2.79112   2.80735   2.85151   2.85609
 Alpha virt. eigenvalues --    2.86008   2.88191   2.89377   2.89623   2.90875
 Alpha virt. eigenvalues --    2.94863   2.96026   2.96825   2.98410   2.99119
 Alpha virt. eigenvalues --    3.03068   3.03232   3.04004   3.07994   3.08330
 Alpha virt. eigenvalues --    3.11011   3.23771   3.26389   3.29258   3.34825
 Alpha virt. eigenvalues --    3.39862   3.41454   3.44466   3.46188   3.55193
 Alpha virt. eigenvalues --    3.60044   3.61144   3.64160   3.65486   3.72018
 Alpha virt. eigenvalues --    3.74637   3.75706   3.87242   3.89092   3.89537
 Alpha virt. eigenvalues --    3.97112   3.99450   4.00251   4.05175   4.06657
 Alpha virt. eigenvalues --    4.09036   4.11875   4.12050   4.12702   4.17838
 Alpha virt. eigenvalues --    4.18760   4.25704   4.25869   4.35586   4.94351
 Alpha virt. eigenvalues --    4.95417   5.00563   5.07929   5.11574   5.19886
 Alpha virt. eigenvalues --    5.24728   5.35413   5.83089   5.88943   6.58318
 Alpha virt. eigenvalues --    6.62739   6.89218  23.73284  24.10771  24.17336
 Alpha virt. eigenvalues --   24.26307  24.28506  24.31068  24.53689  24.56644
 Alpha virt. eigenvalues --   24.72006  35.72996  50.07110  50.13720  66.97494
          Condensed to atoms (all electrons):
               1          2          3          4          5          6
     1  C   11.911301  -1.200019  -1.487645  -0.404618  -1.317269  -1.244209
     2  C   -1.200019  14.491227   0.746405  -0.759381   0.314047  -7.955724
     3  C   -1.487645   0.746405   6.149115   0.624343  -0.388740   0.198830
     4  C   -0.404618  -0.759381   0.624343   6.576012   0.516210  -0.574539
     5  C   -1.317269   0.314047  -0.388740   0.516210   6.112149   0.611456
     6  C   -1.244209  -7.955724   0.198830  -0.574539   0.611456  14.564692
     7  F    0.593197  -0.293384  -0.051784   0.028429  -0.062804  -0.289745
     8  H   -0.207039   0.698286  -0.030872  -0.011196   0.022407  -0.143222
     9  H    0.057727  -0.075518   0.401518  -0.120907  -0.024681   0.090574
    10  H    0.023535  -0.022843  -0.060871   0.490868  -0.063686  -0.015691
    11  H    0.066618   0.099866  -0.025095  -0.124084   0.412674  -0.098267
    12  H   -0.262726  -0.176470   0.030045   0.004456  -0.028684   0.740883
    13  O    0.043785  -0.022799  -0.001720  -0.000655  -0.001580  -0.011853
    14  C    0.001834  -0.001188  -0.000043   0.000699  -0.000294  -0.001958
    15  H    0.002666  -0.001335  -0.000408   0.000035  -0.000270  -0.000454
    16  H   -0.002579   0.001354   0.000278  -0.000064   0.000341   0.000370
    17  H   -0.063775   0.012303  -0.019002  -0.012098   0.023830  -0.003558
    18  N   -0.027733  -0.017234   0.019363   0.006287   0.003630   0.022374
    19  C    0.036131  -0.036210   0.003527   0.006875  -0.005839   0.021306
    20  O    0.001949  -0.000644  -0.000595  -0.000028   0.000765  -0.000874
    21  C   -0.003831   0.045357   0.000713   0.002166  -0.001917  -0.040366
    22  H    0.005413   0.003092   0.000907   0.000026  -0.001645  -0.003852
    23  H    0.006324  -0.003787  -0.001403  -0.000152  -0.000602   0.001999
    24  H    0.002116   0.002788  -0.001856   0.002069   0.000912  -0.003279
    25  H    0.055660   0.005051  -0.000457  -0.001035  -0.018205  -0.016405
               7          8          9         10         11         12
     1  C    0.593197  -0.207039   0.057727   0.023535   0.066618  -0.262726
     2  C   -0.293384   0.698286  -0.075518  -0.022843   0.099866  -0.176470
     3  C   -0.051784  -0.030872   0.401518  -0.060871  -0.025095   0.030045
     4  C    0.028429  -0.011196  -0.120907   0.490868  -0.124084   0.004456
     5  C   -0.062804   0.022407  -0.024681  -0.063686   0.412674  -0.028684
     6  C   -0.289745  -0.143222   0.090574  -0.015691  -0.098267   0.740883
     7  F    9.221986  -0.034409  -0.000786   0.001054  -0.001001  -0.028866
     8  H   -0.034409   0.519951  -0.014908   0.000658   0.002656   0.001054
     9  H   -0.000786  -0.014908   0.507638  -0.015224   0.000301   0.002851
    10  H    0.001054   0.000658  -0.015224   0.511459  -0.015958   0.001363
    11  H   -0.001001   0.002656   0.000301  -0.015958   0.512383  -0.023517
    12  H   -0.028866   0.001054   0.002851   0.001363  -0.023517   0.552323
    13  O    0.005189  -0.000497   0.000076  -0.000009   0.000064  -0.000055
    14  C    0.001304  -0.000018  -0.000040   0.000018  -0.000028  -0.000332
    15  H   -0.000654  -0.000256   0.000003   0.000000   0.000003  -0.000267
    16  H   -0.000610   0.000278  -0.000004  -0.000001  -0.000001   0.000211
    17  H    0.115585  -0.008007   0.002103  -0.002146   0.001338   0.004073
    18  N   -0.027052  -0.001368  -0.000158   0.000204  -0.000341   0.003271
    19  C   -0.015611   0.001431  -0.000182   0.000398  -0.000976   0.000286
    20  O    0.000068   0.000129  -0.000012  -0.000005   0.000003  -0.000259
    21  C   -0.007375   0.003850  -0.000701   0.000216  -0.000049  -0.000254
    22  H   -0.001104   0.000449  -0.000001   0.000011   0.000042  -0.000508
    23  H   -0.001373  -0.000675   0.000148   0.000010  -0.000024   0.000124
    24  H    0.000876  -0.001392  -0.000619   0.000028   0.000029  -0.000451
    25  H   -0.004998   0.000988  -0.000029  -0.000064   0.000462  -0.010739
              13         14         15         16         17         18
     1  C    0.043785   0.001834   0.002666  -0.002579  -0.063775  -0.027733
     2  C   -0.022799  -0.001188  -0.001335   0.001354   0.012303  -0.017234
     3  C   -0.001720  -0.000043  -0.000408   0.000278  -0.019002   0.019363
     4  C   -0.000655   0.000699   0.000035  -0.000064  -0.012098   0.006287
     5  C   -0.001580  -0.000294  -0.000270   0.000341   0.023830   0.003630
     6  C   -0.011853  -0.001958  -0.000454   0.000370  -0.003558   0.022374
     7  F    0.005189   0.001304  -0.000654  -0.000610   0.115585  -0.027052
     8  H   -0.000497  -0.000018  -0.000256   0.000278  -0.008007  -0.001368
     9  H    0.000076  -0.000040   0.000003  -0.000004   0.002103  -0.000158
    10  H   -0.000009   0.000018   0.000000  -0.000001  -0.002146   0.000204
    11  H    0.000064  -0.000028   0.000003  -0.000001   0.001338  -0.000341
    12  H   -0.000055  -0.000332  -0.000267   0.000211   0.004073   0.003271
    13  O    8.121069   0.279339  -0.080890  -0.101226   0.050580  -0.008122
    14  C    0.279339   4.854411   0.387562   0.400395  -0.017424   0.002751
    15  H   -0.080890   0.387562   0.762849  -0.177695   0.006323  -0.000924
    16  H   -0.101226   0.400395  -0.177695   0.777383  -0.002445   0.001101
    17  H    0.050580  -0.017424   0.006323  -0.002445   0.722714   0.359119
    18  N   -0.008122   0.002751  -0.000924   0.001101   0.359119   7.294597
    19  C   -0.007168   0.002125  -0.000012  -0.000387  -0.170311   0.078995
    20  O    0.000130  -0.000207  -0.000001  -0.000021   0.005905  -0.189338
    21  C   -0.004423   0.002851  -0.002129   0.000637  -0.090326   0.162599
    22  H    0.000049   0.000568  -0.000434   0.000052  -0.037230  -0.114505
    23  H   -0.000568   0.000464   0.000444  -0.000187  -0.010094  -0.044484
    24  H   -0.000192  -0.000601   0.000383  -0.000157   0.026169  -0.049908
    25  H   -0.001004   0.000448   0.000062  -0.000061  -0.055498  -0.313255
              19         20         21         22         23         24
     1  C    0.036131   0.001949  -0.003831   0.005413   0.006324   0.002116
     2  C   -0.036210  -0.000644   0.045357   0.003092  -0.003787   0.002788
     3  C    0.003527  -0.000595   0.000713   0.000907  -0.001403  -0.001856
     4  C    0.006875  -0.000028   0.002166   0.000026  -0.000152   0.002069
     5  C   -0.005839   0.000765  -0.001917  -0.001645  -0.000602   0.000912
     6  C    0.021306  -0.000874  -0.040366  -0.003852   0.001999  -0.003279
     7  F   -0.015611   0.000068  -0.007375  -0.001104  -0.001373   0.000876
     8  H    0.001431   0.000129   0.003850   0.000449  -0.000675  -0.001392
     9  H   -0.000182  -0.000012  -0.000701  -0.000001   0.000148  -0.000619
    10  H    0.000398  -0.000005   0.000216   0.000011   0.000010   0.000028
    11  H   -0.000976   0.000003  -0.000049   0.000042  -0.000024   0.000029
    12  H    0.000286  -0.000259  -0.000254  -0.000508   0.000124  -0.000451
    13  O   -0.007168   0.000130  -0.004423   0.000049  -0.000568  -0.000192
    14  C    0.002125  -0.000207   0.002851   0.000568   0.000464  -0.000601
    15  H   -0.000012  -0.000001  -0.002129  -0.000434   0.000444   0.000383
    16  H   -0.000387  -0.000021   0.000637   0.000052  -0.000187  -0.000157
    17  H   -0.170311   0.005905  -0.090326  -0.037230  -0.010094   0.026169
    18  N    0.078995  -0.189338   0.162599  -0.114505  -0.044484  -0.049908
    19  C    5.046583   0.484329  -0.023647   0.048495  -0.008827  -0.011602
    20  O    0.484329   8.153310  -0.042891   0.045385  -0.003209  -0.004349
    21  C   -0.023647  -0.042891   5.104326   0.432278   0.429871   0.402364
    22  H    0.048495   0.045385   0.432278   0.462303  -0.023411  -0.024501
    23  H   -0.008827  -0.003209   0.429871  -0.023411   0.574714  -0.072739
    24  H   -0.011602  -0.004349   0.402364  -0.024501  -0.072739   0.588932
    25  H    0.435780  -0.018762  -0.001894   0.023952  -0.003195  -0.003992
              25
     1  C    0.055660
     2  C    0.005051
     3  C   -0.000457
     4  C   -0.001035
     5  C   -0.018205
     6  C   -0.016405
     7  F   -0.004998
     8  H    0.000988
     9  H   -0.000029
    10  H   -0.000064
    11  H    0.000462
    12  H   -0.010739
    13  O   -0.001004
    14  C    0.000448
    15  H    0.000062
    16  H   -0.000061
    17  H   -0.055498
    18  N   -0.313255
    19  C    0.435780
    20  O   -0.018762
    21  C   -0.001894
    22  H    0.023952
    23  H   -0.003195
    24  H   -0.003992
    25  H    0.830742
 Mulliken charges:
               1
     1  C   -0.586812
     2  C    0.146762
     3  C   -0.104552
     4  C   -0.249717
     5  C   -0.102206
     6  C    0.151511
     7  F   -0.146133
     8  H    0.201723
     9  H    0.190832
    10  H    0.166674
    11  H    0.192903
    12  H    0.192189
    13  O   -0.257518
    14  C    0.087366
    15  H    0.105400
    16  H    0.103042
    17  H    0.161873
    18  N   -0.159869
    19  C    0.114514
    20  O   -0.430779
    21  C   -0.367429
    22  H    0.184171
    23  H    0.160632
    24  H    0.148972
    25  H    0.096450
 Sum of Mulliken charges =  -0.00000
 Mulliken charges with hydrogens summed into heavy atoms:
               1
     1  C   -0.586812
     2  C    0.348486
     3  C    0.086280
     4  C   -0.083043
     5  C    0.090697
     6  C    0.343700
     7  F   -0.146133
    13  O   -0.257518
    14  C    0.295807
    18  N    0.002004
    19  C    0.210964
    20  O   -0.430779
    21  C    0.126346
 Electronic spatial extent (au):  <R**2>=           3671.1657
 Charge=              0.0000 electrons
 Dipole moment (field-independent basis, Debye):
    X=             -2.3102    Y=              3.9228    Z=              1.4551  Tot=              4.7794
 Quadrupole moment (field-independent basis, Debye-Ang):
   XX=            -65.3221   YY=            -85.8579   ZZ=            -68.1072
   XY=             23.4296   XZ=              4.3802   YZ=             -4.6278
 Traceless Quadrupole moment (field-independent basis, Debye-Ang):
   XX=              7.7736   YY=            -12.7621   ZZ=              4.9885
   XY=             23.4296   XZ=              4.3802   YZ=             -4.6278
 Octapole moment (field-independent basis, Debye-Ang**2):
  XXX=             14.6582  YYY=             85.9502  ZZZ=             -0.0326  XYY=              4.9644
  XXY=             75.6252  XXZ=             14.9872  XZZ=             -1.5904  YZZ=              3.6790
  YYZ=             16.2611  XYZ=            -19.5736
 Hexadecapole moment (field-independent basis, Debye-Ang**3):
 XXXX=          -2748.8216 YYYY=          -1362.6315 ZZZZ=           -432.8463 XXXY=            376.2728
 XXXZ=             30.3141 YYYX=            283.4820 YYYZ=            -58.8579 ZZZX=              2.8162
 ZZZY=             -2.0194 XXYY=           -709.0782 XXZZ=           -539.3198 YYZZ=           -301.9701
 XXYZ=            -46.9794 YYXZ=             45.1782 ZZXY=             11.0878
 N-N= 7.467549931467D+02 E-N=-3.029793984150D+03  KE= 6.558970419425D+02
 Calling FoFJK, ICntrl=      2127 FMM=F ISym2X=0 I1Cent= 0 IOpClX= 0 NMat=1 NMatS=1 NMatT=0.
 ***** Axes restored to original set *****
 -------------------------------------------------------------------
 Center     Atomic                   Forces (Hartrees/Bohr)
 Number     Number              X              Y              Z
 -------------------------------------------------------------------
      1        6          -0.093375515   -0.004199182   -0.053888393
      2        6          -0.052152383    0.001178059    0.015689143
      3        6           0.002615162    0.000052744    0.036745610
      4        6           0.039235399    0.000527866    0.022628602
      5        6           0.032673093   -0.002424529   -0.016262449
      6        6          -0.012081697    0.003564563   -0.053867795
      7        9           0.027230671    0.002017923    0.015671092
      8        1          -0.065731733    0.000158401    0.035496980
      9        1          -0.001527283   -0.000136739    0.073885989
     10        1           0.064299646    0.000609845    0.037122426
     11        1           0.063174888    0.000450079   -0.038275254
     12        1          -0.002087004   -0.001073616   -0.073719454
     13        8           0.010061096    0.000321361    0.005918701
     14        6           0.068309685    0.000406929    0.039630325
     15        1          -0.039649685    0.072417451   -0.023038212
     16        1          -0.039565459   -0.072487069   -0.022988475
     17        1          -0.002987771   -0.009438313    0.001244396
     18        7          -0.004903358    0.008508708    0.009498696
     19        6          -0.036939680    0.070546104    0.039242004
     20        8           0.005729621   -0.014668340   -0.005154934
     21        6           0.031784071   -0.044535011   -0.039747907
     22        1           0.000258547    0.071063368   -0.025224812
     23        1          -0.073408463   -0.029182865    0.005647632
     24        1           0.037188647   -0.006369190    0.069698075
     25        1           0.041849508   -0.047308547   -0.055951987
 -------------------------------------------------------------------
 Cartesian Forces:  Max     0.093375515 RMS     0.038349639
 -----------------------------------------------------------------------------------------------
                       Internal Coordinate Forces (Hartree/Bohr or radian)
  Cent   Atom   N1       Length/X         N2         Alpha/Y        N3         Beta/Z          J
 -----------------------------------------------------------------------------------------------
      1  C 
      2  C        1   0.167031(     1)
      3  C        2   0.231535(     2)      1   0.491618(    25)
      4  C        3   0.170064(     3)      2   0.488513(    26)      1  -0.005244(    48)     0
      5  C        4   0.054538(     4)      3   0.232517(    27)      2  -0.004201(    49)     0
      6  C        1   0.051418(     5)      2   0.292758(    28)      3  -0.004268(    50)     0
      7  F        1  -0.029806(     6)      2  -0.000313(    29)      3  -0.002734(    51)     0
      8  H        2   0.074674(     7)      1  -0.004015(    30)      6  -0.000259(    52)     0
      9  H        3   0.073886(     8)      2  -0.002886(    31)      1   0.000224(    53)     0
     10  H        4   0.074246(     9)      3   0.000002(    32)      2  -0.000998(    54)     0
     11  H        5   0.073849(    10)      4   0.002948(    33)      3  -0.000737(    55)     0
     12  H        6   0.073641(    11)      1  -0.003646(    34)      2  -0.005997(    56)     0
     13  O        1   0.000970(    12)      2   0.000284(    35)      3   0.004994(    57)     0
     14  C       13   0.012643(    13)      1  -0.000352(    36)      2   0.000000(    58)     0
     15  H       14   0.085644(    14)     13   0.006623(    37)      1   0.000169(    59)     0
     16  H       14   0.085655(    15)     13   0.006397(    38)      1  -0.000168(    60)     0
     17  H        7  -0.001083(    16)      1   0.004857(    39)      2   0.000040(    61)     0
     18  N       17   0.007875(    17)      7  -0.000259(    40)      1   0.000257(    62)     0
     19  C       18   0.025421(    18)     17  -0.023288(    41)      7   0.000262(    63)     0
     20  O       19  -0.014341(    19)     18   0.019287(    42)     17  -0.000387(    64)     0
     21  C       18   0.004536(    20)     17  -0.027738(    43)     19  -0.000327(    65)     0
     22  H       21   0.075042(    21)     18  -0.014011(    44)     17  -0.000247(    66)     0
     23  H       21   0.079158(    22)     18  -0.004738(    45)     17   0.000003(    67)     0
     24  H       21   0.079224(    23)     18  -0.004199(    46)     17   0.000247(    68)     0
     25  H       19   0.084304(    24)     18   0.006793(    47)     17   0.000128(    69)     0
 -----------------------------------------------------------------------------------------------
 Internal  Forces:  Max     0.491618211 RMS     0.108198015

 GradGradGradGradGradGradGradGradGradGradGradGradGradGradGradGradGradGrad
 Berny optimization.
 Search for a local minimum.
 Step number   1 out of a maximum of   79
 All quantities printed in internal units (Hartrees-Bohrs-Radians)
 Second derivative matrix not updated -- first step.
 ITU=  0
     Eigenvalues ---    0.00539   0.03554   0.38245   0.45620   0.47512
     Eigenvalues ---    0.47688   0.47688   0.47688   0.47688   0.47688
     Eigenvalues ---    0.47688   0.47688   0.47688   0.47688   0.47688
     Eigenvalues ---    0.47688   0.59506   0.67193   0.67193   0.67196
     Eigenvalues ---    0.91086   1.04823   1.07882   2.012151000.00000
     Eigenvalues --- 1000.000001000.000001000.000001000.000001000.00000
     Eigenvalues --- 1000.000001000.000001000.000001000.000001000.00000
     Eigenvalues --- 1000.000001000.000001000.000001000.000001000.00000
     Eigenvalues --- 1000.000001000.000001000.000001000.000001000.00000
     Eigenvalues --- 1000.000001000.000001000.000001000.000001000.00000
     Eigenvalues --- 1000.000001000.000001000.000001000.000001000.00000
     Eigenvalues --- 1000.000001000.000001000.000001000.000001000.00000
     Eigenvalues --- 1000.000001000.000001000.000001000.000001000.00000
     Eigenvalues --- 1000.000001000.000001000.000001000.00000
 RFO step:  Lambda=-1.94659993D-01 EMin= 5.39045724D-03
 Linear search not attempted -- first point.
 Maximum step size (   0.300) exceeded in Quadratic search.
    -- Step size scaled by   0.613
 Variable       Old X    -DE/DX   Delta X   Delta X   Delta X     New X
                                 (Linear)    (Quad)   (Total)
    B1        2.45664   0.16703   0.00000   0.08118   0.08118   2.53783
    B2        2.45664   0.23154   0.00000   0.08915   0.08915   2.54579
    B3        2.45664   0.17006   0.00000   0.08259   0.08259   2.53924
    B4        2.45664   0.05454   0.00000   0.07546   0.07546   2.53211
    B5        2.45664   0.05142   0.00000   0.07395   0.07395   2.53059
    B6        2.64562  -0.02981   0.00000  -0.02806  -0.02806   2.61756
    B7        1.88973   0.07467   0.00000   0.06813   0.06813   1.95785
    B8        1.88973   0.07389   0.00000   0.06741   0.06741   1.95714
    B9        1.88973   0.07425   0.00000   0.06774   0.06774   1.95746
   B10        1.88973   0.07385   0.00000   0.06738   0.06738   1.95710
   B11        1.89163   0.07364   0.00000   0.06736   0.06736   1.95899
   B12        7.93685   0.00097   0.00000   0.00297   0.00297   7.93982
   B13        2.26767   0.01264   0.00000   0.00623   0.00623   2.27390
   B14        1.88973   0.08564   0.00000   0.07814   0.07814   1.96786
   B15        1.88973   0.08566   0.00000   0.07815   0.07815   1.96787
   B16        4.00622  -0.00108   0.00000  -0.00288  -0.00288   4.00334
   B17        1.88973   0.00787   0.00000   0.00718   0.00718   1.89691
   B18        2.51334   0.02542   0.00000   0.01972   0.01972   2.53306
   B19        2.32436  -0.01434   0.00000  -0.00795  -0.00795   2.31642
   B20        2.74010   0.00454   0.00000   0.00482   0.00482   2.74492
   B21        1.88973   0.07504   0.00000   0.06846   0.06846   1.95819
   B22        1.88973   0.07916   0.00000   0.07222   0.07222   1.96195
   B23        1.88973   0.07922   0.00000   0.07228   0.07228   1.96201
   B24        1.88973   0.08430   0.00000   0.07691   0.07691   1.96664
    A1        2.09440   0.49162   0.00000   0.00000   0.00000   2.09440
    A2        2.09440   0.48851   0.00000   0.00000   0.00000   2.09440
    A3        2.09440   0.23252   0.00000   0.00000   0.00000   2.09440
    A4        2.09401   0.29276   0.00000   0.00000   0.00000   2.09401
    A5        2.09440  -0.00031   0.00000   0.00000   0.00000   2.09440
    A6        2.09440  -0.00401   0.00000   0.00000   0.00000   2.09440
    A7        2.09440  -0.00289   0.00000   0.00000   0.00000   2.09440
    A8        2.09440   0.00000   0.00000   0.00000   0.00000   2.09440
    A9        2.09440   0.00295   0.00000   0.00000   0.00000   2.09440
   A10        2.09292  -0.00365   0.00000   0.00000   0.00000   2.09292
   A11        2.09440   0.00028   0.00000   0.00000   0.00000   2.09440
   A12        3.13985  -0.00035   0.00000   0.00000   0.00000   3.13985
   A13        2.09439   0.00662   0.00000   0.00000   0.00000   2.09439
   A14        2.09439   0.00640   0.00000   0.00000   0.00000   2.09439
   A15        1.74533   0.00486   0.00000   0.00000   0.00000   1.74533
   A16        3.13985  -0.00026   0.00000   0.00000   0.00000   3.13985
   A17        2.08567  -0.02329   0.00000   0.00000   0.00000   2.08567
   A18        2.15025   0.01929   0.00000   0.00000   0.00000   2.15025
   A19        2.12756  -0.02774   0.00000   0.00000   0.00000   2.12756
   A20        1.93208  -0.01401   0.00000   0.00000   0.00000   1.93208
   A21        1.93208  -0.00474   0.00000   0.00000   0.00000   1.93208
   A22        1.93208  -0.00420   0.00000   0.00000   0.00000   1.93208
   A23        1.98038   0.00679   0.00000   0.00000   0.00000   1.98038
    D1        0.00000  -0.00524   0.00000   0.00000   0.00000   0.00000
    D2        0.00000  -0.00420   0.00000   0.00000   0.00000   0.00000
    D3        0.02997  -0.00427   0.00000   0.00000   0.00000   0.02997
    D4       -3.14159  -0.00273   0.00000   0.00000   0.00000  -3.14159
    D5       -3.11162  -0.00026   0.00000   0.00000   0.00000  -3.11162
    D6        3.14159   0.00022   0.00000   0.00000   0.00000   3.14159
    D7        3.14159  -0.00100   0.00000   0.00000   0.00000   3.14159
    D8        3.14159  -0.00074   0.00000   0.00000   0.00000   3.14159
    D9       -3.10270  -0.00600   0.00000   0.00000   0.00000  -3.10270
   D10       -3.14159   0.00499   0.00000   0.00000   0.00000  -3.14159
   D11        3.14159   0.00000   0.00000   0.00000   0.00000   3.14159
   D12       -1.57158   0.00017   0.00000   0.00000   0.00000  -1.57158
   D13        1.57158  -0.00017   0.00000   0.00000   0.00000   1.57158
   D14        1.57080   0.00004   0.00000   0.00000   0.00000   1.57080
   D15        1.57080   0.00026   0.00000   0.00000   0.00000   1.57080
   D16        0.00000   0.00026   0.00000   0.00000   0.00000   0.00000
   D17       -3.14159  -0.00039   0.00000   0.00000   0.00000  -3.14159
   D18       -3.14159  -0.00033   0.00000   0.00000   0.00000  -3.14159
   D19       -3.14159  -0.00025   0.00000   0.00000   0.00000  -3.14159
   D20       -1.04720   0.00000   0.00000   0.00000   0.00000  -1.04720
   D21        1.04720   0.00025   0.00000   0.00000   0.00000   1.04720
   D22       -0.00000   0.00013   0.00000   0.00000   0.00000   0.00000
         Item               Value     Threshold  Converged?
 Maximum Force            0.231535     0.000450     NO 
 RMS     Force            0.087894     0.000300     NO 
 Maximum Displacement     0.089148     0.001800     NO 
 RMS     Displacement     0.036116     0.001200     NO 
 Predicted change in Energy=-9.148863D-02
 GradGradGradGradGradGradGradGradGradGradGradGradGradGradGradGradGradGrad

 ---------------------------------------------------------------------------------------------------
                            Z-MATRIX (ANGSTROMS AND DEGREES)
   CD    Cent   Atom    N1       Length/X        N2       Alpha/Y        N3        Beta/Z          J
 ---------------------------------------------------------------------------------------------------
      1      1  C 
      2      2  C        1   1.342961(     1)
      3      3  C        2   1.347175(     2)      1  120.000(    25)
      4      4  C        3   1.343707(     3)      2  120.000(    26)      1    0.000(    48)      0
      5      5  C        4   1.339934(     4)      3  120.000(    27)      2    0.000(    49)      0
      6      6  C        1   1.339130(     5)      2  119.978(    28)      3    1.717(    50)      0
      7      7  F        1   1.385153(     6)      2  120.000(    29)      3 -180.000(    51)      0
      8      8  H        2   1.036052(     7)      1  120.000(    30)      6 -178.283(    52)      0
      9      9  H        3   1.035672(     8)      2  120.000(    31)      1  180.000(    53)      0
     10     10  H        4   1.035846(     9)      3  120.000(    32)      2  180.000(    54)      0
     11     11  H        5   1.035654(    10)      4  120.000(    33)      3  180.000(    55)      0
     12     12  H        6   1.036654(    11)      1  119.916(    34)      2 -177.772(    56)      0
     13     13  O        1   4.201572(    12)      2  120.000(    35)      3 -180.000(    57)      0
     14     14  C       13   1.203298(    13)      1  179.900(    36)      2  180.000(    58)      0
     15     15  H       14   1.041348(    14)     13  120.000(    37)      1  -90.045(    59)      0
     16     16  H       14   1.041354(    15)     13  120.000(    38)      1   90.045(    60)      0
     17     17  H        7   2.118474(    16)      1  100.000(    39)      2   90.000(    61)      0
     18     18  N       17   1.003802(    17)      7  179.900(    40)      1   90.000(    62)      0
     19     19  C       18   1.340436(    18)     17  119.500(    41)      7    0.000(    63)      0
     20     20  O       19   1.225794(    19)     18  123.200(    42)     17 -180.000(    64)      0
     21     21  C       18   1.452548(    20)     17  121.900(    43)     19 -180.000(    65)      0
     22     22  H       21   1.036230(    21)     18  110.700(    44)     17 -180.000(    66)      0
     23     23  H       21   1.038217(    22)     18  110.700(    45)     17  -60.000(    67)      0
     24     24  H       21   1.038249(    23)     18  110.700(    46)     17   60.000(    68)      0
     25     25  H       19   1.040701(    24)     18  113.467(    47)     17    0.000(    69)      0
 ---------------------------------------------------------------------------------------------------
                         Z-Matrix orientation:                         
 ---------------------------------------------------------------------
 Center     Atomic      Atomic             Coordinates (Angstroms)
 Number     Number       Type             X           Y           Z
 ---------------------------------------------------------------------
      1          6           0        0.000000    0.000000    0.000000
      2          6           0        0.000000    0.000000    1.342961
      3          6           0        1.166688    0.000000    2.016548
      4          6           0        2.330372    0.000000    1.344695
      5          6           0        2.330372    0.000000    0.004761
      6          6           0        1.159460   -0.034761   -0.669114
      7          9           0       -1.199577    0.000000   -0.692576
      8          1           0       -0.897247    0.000000    1.860987
      9          1           0        1.166688    0.000000    3.052220
     10          1           0        3.227441    0.000000    1.862618
     11          1           0        3.227274    0.000000   -0.513066
     12          1           0        1.159722    0.000186   -1.705179
     13          8           0       -3.638668    0.000000   -2.100786
     14          6           0       -4.679703    0.000000   -2.704253
     15          1           0       -5.130519    0.901834   -2.964765
     16          1           0       -5.130522   -0.901839   -2.964766
     17          1           0       -1.518161    2.086290   -0.876511
     18          7           0       -1.668241    3.074840   -0.965182
     19          6           0       -1.183294    3.722869   -2.033665
     20          8           0       -1.326609    4.927386   -2.210214
     21          6           0       -2.399911    3.832880    0.034783
     22          1           0       -2.451200    4.833585   -0.229285
     23          1           0       -3.368830    3.472792    0.131879
     24          1           0       -1.934157    3.764893    0.960208
     25          1           0       -0.673974    3.104179   -2.697649
 ---------------------------------------------------------------------
                    Distance matrix (angstroms):
                    1          2          3          4          5
     1  C    0.000000
     2  C    1.342961   0.000000
     3  C    2.329727   1.347175   0.000000
     4  C    2.690509   2.330373   1.343707   0.000000
     5  C    2.330377   2.687269   2.324102   1.339934   0.000000
     6  C    1.339130   2.322499   2.685897   2.329736   1.351425
     7  F    1.385153   2.362710   3.597022   4.075661   3.598169
     8  H    2.065993   1.036052   2.069789   3.268652   3.723319
     9  H    3.267600   2.069475   1.035672   2.066350   3.262081
    10  H    3.726354   3.269008   2.066494   1.035846   2.063096
    11  H    3.267803   3.722920   3.262662   2.062937   1.035654
    12  H    2.062181   3.261305   3.721734   3.266826   2.072273
    13  O    4.201572   5.009920   6.328024   6.892081   6.329516
    14  C    5.404869   6.187048   7.514403   8.095377   7.515312
    15  H    5.993777   6.759588   8.079703   8.663120   8.080612
    16  H    5.993780   6.759592   8.079706   8.663123   8.080615
    17  H    2.725012   3.403451   4.464394   4.908928   4.465474
    18  N    3.628946   4.191085   5.136359   5.547890   5.136568
    19  C    4.404058   5.163481   5.982173   6.133426   5.510061
    20  O    5.560942   6.218045   6.954221   7.091546   6.523707
    21  C    4.522361   4.707640   5.598124   6.227553   6.088304
    22  H    5.424435   5.643038   6.441771   6.978853   6.803069
    23  H    4.840113   4.987587   6.015246   6.783223   6.675129
    24  H    4.340206   4.249928   4.990543   5.701619   5.768319
    25  H    4.167431   5.139718   5.936971   5.916297   5.095590
                    6          7          8          9         10
     6  C    0.000000
     7  F    2.359410   0.000000
     8  H    3.260777   2.571398   0.000000
     9  H    3.721503   4.429753   2.383037   0.000000
    10  H    3.269161   5.111507   4.124688   2.379465   0.000000
    11  H    2.073985   4.430490   4.758971   4.117922   2.375684
    12  H    1.036654   2.567422   4.116875   4.757404   4.123667
    13  O    5.007288   2.816420   4.817783   7.045915   7.927927
    14  C    6.183755   4.019716   5.928608   8.204710   9.131223
    15  H    6.760996   4.629087   6.482421   8.756268   9.693937
    16  H    6.751719   4.629091   6.482424   8.756271   9.693940
    17  H    3.422211   2.118474   3.497433   5.195763   5.863119
    18  N    4.213451   3.122275   4.246917   5.799223   6.435743
    19  C    4.633603   3.957087   5.395358   6.726692   6.963860
    20  O    5.760072   5.157373   6.406104   7.628163   7.848978
    21  C    5.303135   4.081767   4.503775   6.042890   7.049754
    22  H    6.077097   5.014453   5.490678   6.871748   7.745099
    23  H    5.783592   4.176801   4.599872   6.415575   7.652877
    24  H    5.163577   4.176808   4.007619   5.307181   6.452198
    25  H    4.162857   3.732627   5.519687   6.788591   6.756700
                   11         12         13         14         15
    11  H    0.000000
    12  H    2.386609   0.000000
    13  O    7.047129   4.814671   0.000000
    14  C    8.204974   5.924275   1.203298   0.000000
    15  H    8.756531   6.478168   1.945606   1.041348   0.000000
    16  H    8.756535   6.478223   1.945611   1.041354   1.803673
    17  H    5.196524   3.494221   3.216832   4.205781   4.337380
    18  N    5.798717   4.242460   3.824503   4.641973   4.550567
    19  C    5.968675   4.410895   4.460171   5.151148   4.940220
    20  O    6.920787   5.542040   5.443963   5.980506   5.589647
    21  C    6.830544   5.512531   4.559182   5.233616   5.004452
    22  H    7.462516   6.211181   5.317531   5.869858   5.488193
    23  H    7.482301   5.995128   4.137377   4.671436   4.393470
    24  H    6.556320   5.554223   5.142904   5.927961   5.815432
    25  H    5.443167   3.739279   4.333773   5.067725   4.978200
                   16         17         18         19         20
    16  H    0.000000
    17  H    5.132141   0.000000
    18  N    5.639123   1.003802   0.000000
    19  C    6.151055   2.032125   1.340436   0.000000
    20  O    7.001355   3.144405   2.258040   1.225794   0.000000
    21  C    6.234668   2.158359   1.452548   2.402236   2.718443
    22  H    6.896137   2.972724   2.061007   2.469223   2.279821
    23  H    5.641823   2.522739   2.062502   3.086858   3.431022
    24  H    6.884806   2.522756   2.062526   3.086882   3.431046
    25  H    5.998362   2.250621   1.997716   1.040701   1.996901
                   21         22         23         24         25
    21  C    0.000000
    22  H    1.036230   0.000000
    23  H    1.038217   1.680548   0.000000
    24  H    1.038249   1.680574   1.682183   0.000000
    25  H    3.313013   3.498886   3.924839   3.924860   0.000000
 Stoichiometry    C9H12FNO2
 Framework group  C1[X(C9H12FNO2)]
 Deg. of freedom    69
 Full point group                 C1      NOp   1
 Largest Abelian subgroup         C1      NOp   1
 Largest concise Abelian subgroup C1      NOp   1
                         Standard orientation:                         
 ---------------------------------------------------------------------
 Center     Atomic      Atomic             Coordinates (Angstroms)
 Number     Number       Type             X           Y           Z
 ---------------------------------------------------------------------
      1          6           0       -1.449239    0.710522   -0.054336
      2          6           0       -2.098726    0.545979    1.109553
      3          6           0       -3.318274   -0.026151    1.125346
      4          6           0       -3.884836   -0.432173   -0.023437
      5          6           0       -3.236813   -0.268001   -1.184703
      6          6           0       -2.028605    0.337200   -1.202480
      7          9           0       -0.195311    1.298781   -0.070574
      8          1           0       -1.661884    0.859039    1.995311
      9          1           0       -3.819149   -0.153044    2.022920
     10          1           0       -4.822549   -0.872085   -0.011294
     11          1           0       -3.673487   -0.580940   -2.070120
     12          1           0       -1.512947    0.432601   -2.096710
     13          8           0        2.354291    2.494882   -0.103591
     14          6           0        3.443667    3.005690   -0.119785
     15          1           0        4.296804    2.415703   -0.027709
     16          1           0        3.533239    4.037889   -0.224470
     17          1           0        1.020919   -0.421355    0.152705
     18          7           0        1.597270   -1.236591    0.256760
     19          6           0        2.016837   -1.892009   -0.834643
     20          8           0        2.721933   -2.893553   -0.786481
     21          6           0        1.995097   -1.733829    1.562281
     22          1           0        2.585737   -2.579964    1.467559
     23          1           0        2.537977   -1.015263    2.078846
     24          1           0        1.161950   -1.981522    2.130149
     25          1           0        1.685854   -1.467955   -1.725535
 ---------------------------------------------------------------------
 Rotational constants (GHZ):           0.7536719           0.3888280           0.3003805
 Standard basis: 6-311++G(d,p) (5D, 7F)
 There are   383 symmetry adapted cartesian basis functions of A   symmetry.
 There are   370 symmetry adapted basis functions of A   symmetry.
   370 basis functions,   576 primitive gaussians,   383 cartesian basis functions
    49 alpha electrons       49 beta electrons
       nuclear repulsion energy       736.3692467116 Hartrees.
 NAtoms=   25 NActive=   25 NUniq=   25 SFac= 1.00D+00 NAtFMM=   60 NAOKFM=F Big=F
 Integral buffers will be    131072 words long.
 Raffenetti 2 integral format.
 Two-electron integral symmetry is turned on.
 One-electron integrals computed using PRISM.
 NBasis=   370 RedAO= T EigKep=  4.83D-06  NBF=   370
 NBsUse=   369 1.00D-06 EigRej=  7.42D-07 NBFU=   369
 Initial guess from the checkpoint file:  "model_H1.chk"
 B after Tr=     0.000000   -0.000000    0.000000
         Rot=    0.999990    0.000976    0.000157    0.004318 Ang=   0.51 deg.
 ExpMin= 3.60D-02 ExpMax= 1.14D+04 ExpMxC= 1.72D+03 IAcc=3 IRadAn=         5 AccDes= 0.00D+00
 Harris functional with IExCor= 1009 and IRadAn=       5 diagonalized for initial guess.
 HarFok:  IExCor= 1009 AccDes= 0.00D+00 IRadAn=         5 IDoV= 1 UseB2=F ITyADJ=14
 ICtDFT=  3500011 ScaDFX=  1.000000  1.000000  1.000000  1.000000
 FoFCou: FMM=F IPFlag=           0 FMFlag=      100000 FMFlg1=           0
         NFxFlg=           0 DoJE=T BraDBF=F KetDBF=T FulRan=T
         wScrn=  0.000000 ICntrl=       500 IOpCl=  0 I1Cent=   200000004 NGrid=           0
         NMat0=    1 NMatS0=      1 NMatT0=    0 NMatD0=    1 NMtDS0=    0 NMtDT0=    0
 Petite list used in FoFCou.
 Requested convergence on RMS density matrix=1.00D-08 within 128 cycles.
 Requested convergence on MAX density matrix=1.00D-06.
 Requested convergence on             energy=1.00D-06.
 No special actions if energy rises.
 SCF Done:  E(RM062X) =  -655.067921206     A.U. after   13 cycles
            NFock= 13  Conv=0.54D-08     -V/T= 2.0011
 Calling FoFJK, ICntrl=      2127 FMM=F ISym2X=0 I1Cent= 0 IOpClX= 0 NMat=1 NMatS=1 NMatT=0.
 ***** Axes restored to original set *****
 -------------------------------------------------------------------
 Center     Atomic                   Forces (Hartrees/Bohr)
 Number     Number              X              Y              Z
 -------------------------------------------------------------------
      1        6          -0.044095673   -0.005002991   -0.022741415
      2        6          -0.022949592    0.001035314    0.008605128
      3        6          -0.002113695    0.000036514    0.008831807
      4        6           0.016034208    0.000392588    0.011967200
      5        6           0.003765340   -0.003374796   -0.010131949
      6        6           0.001115521    0.006594652   -0.024870867
      7        9           0.023030693    0.001766197    0.013395494
      8        1          -0.034171849    0.000144697    0.017471041
      9        1          -0.001569333   -0.000115938    0.037903645
     10        1           0.032995229    0.000555540    0.019159612
     11        1           0.031860597    0.000337334   -0.020536746
     12        1          -0.001848479   -0.001883779   -0.037948455
     13        8           0.000561615    0.000282854    0.000407148
     14        6           0.044060354    0.000411537    0.025629402
     15        1          -0.022681748    0.037086114   -0.013229027
     16        1          -0.022613348   -0.037154132   -0.013184299
     17        1          -0.003340523   -0.005447380    0.000841181
     18        7          -0.002241417    0.010582514    0.003794728
     19        6          -0.021225434    0.042117680    0.022142291
     20        8           0.005535886   -0.012844843   -0.005497814
     21        6           0.014819785   -0.027870150   -0.016108812
     22        1           0.001647819    0.036447116   -0.015431065
     23        1          -0.038533586   -0.015747216    0.002775043
     24        1           0.019762217   -0.003602898    0.036585475
     25        1           0.022195412   -0.024746532   -0.029828745
 -------------------------------------------------------------------
 Cartesian Forces:  Max     0.044095673 RMS     0.020157182
 -----------------------------------------------------------------------------------------------
                       Internal Coordinate Forces (Hartree/Bohr or radian)
  Cent   Atom   N1       Length/X         N2         Alpha/Y        N3         Beta/Z          J
 -----------------------------------------------------------------------------------------------
      1  C 
      2  C        1   0.073270(     1)
      3  C        2   0.093721(     2)      1   0.199303(    25)
      4  C        3   0.073085(     3)      2   0.195252(    26)      1  -0.010684(    48)     0
      5  C        4   0.030669(     4)      3   0.086578(    27)      2  -0.006661(    49)     0
      6  C        1   0.030632(     5)      2   0.142258(    28)      3  -0.010149(    50)     0
      7  F        1  -0.025084(     6)      2  -0.000632(    29)      3  -0.002451(    51)     0
      8  H        2   0.038329(     7)      1  -0.003829(    30)      6  -0.000245(    52)     0
      9  H        3   0.037904(     8)      2  -0.003071(    31)      1   0.000197(    53)     0
     10  H        4   0.038155(     9)      3  -0.000186(    32)      2  -0.000942(    54)     0
     11  H        5   0.037860(    10)      4   0.003631(    33)      3  -0.000572(    55)     0
     12  H        6   0.037863(    11)      1  -0.003330(    34)      2  -0.005518(    56)     0
     13  O        1   0.000771(    12)      2   0.000256(    35)      3   0.004808(    57)     0
     14  C       13   0.001461(    13)      1  -0.000338(    36)      2   0.000006(    58)     0
     15  H       14   0.045246(    14)     13   0.008259(    37)      1   0.000169(    59)     0
     16  H       14   0.045264(    15)     13   0.008053(    38)      1  -0.000161(    60)     0
     17  H        7  -0.000824(    16)      1   0.004544(    39)      2   0.000001(    61)     0
     18  N       17   0.004115(    17)      7  -0.000197(    40)      1   0.000248(    62)     0
     19  C       18   0.015051(    18)     17  -0.022978(    41)      7   0.000252(    63)     0
     20  O       19  -0.012477(    19)     18   0.019399(    42)     17  -0.000419(    64)     0
     21  C       18   0.000922(    20)     17  -0.027204(    43)     19  -0.000214(    65)     0
     22  H       21   0.039048(    21)     18  -0.013052(    44)     17  -0.000249(    66)     0
     23  H       21   0.041683(    22)     18  -0.003422(    45)     17   0.000256(    67)     0
     24  H       21   0.041711(    23)     18  -0.002920(    46)     17  -0.000010(    68)     0
     25  H       19   0.044605(    24)     18   0.004460(    47)     17   0.000100(    69)     0
 -----------------------------------------------------------------------------------------------
 Internal  Forces:  Max     0.199302515 RMS     0.046419604

[...]
                 (A) (A) (A) (A) (A) (A) (A) (A) (A) (A) (A) (A)
                 (A) (A) (A) (A) (A) (A) (A) (A) (A) (A) (A) (A)
                 (A) (A) (A) (A) (A) (A) (A) (A) (A) (A) (A) (A)
                 (A) (A) (A) (A) (A) (A) (A) (A) (A) (A) (A) (A)
                 (A) (A) (A) (A) (A) (A) (A) (A) (A) (A) (A) (A)
                 (A) (A) (A) (A) (A) (A) (A) (A) (A) (A) (A) (A)
                 (A) (A) (A) (A) (A) (A) (A) (A) (A) (A) (A) (A)
                 (A) (A) (A) (A) (A) (A) (A) (A) (A) (A) (A) (A)
                 (A) (A) (A) (A) (A) (A) (A) (A) (A) (A) (A) (A)
                 (A) (A) (A) (A) (A) (A) (A) (A) (A) (A) (A) (A)
                 (A) (A) (A) (A) (A) (A) (A) (A) (A) (A) (A) (A)
                 (A) (A) (A) (A) (A) (A) (A) (A) (A) (A) (A) (A)
                 (A) (A) (A) (A) (A) (A) (A) (A) (A)
 The electronic state is 1-A.
 Alpha  occ. eigenvalues --  -25.26915 -19.64642 -19.57936 -14.76199 -10.64357
 Alpha  occ. eigenvalues --  -10.64192 -10.62846 -10.56408 -10.56390 -10.56300
 Alpha  occ. eigenvalues --  -10.56287 -10.55746 -10.55646  -1.38946  -1.19518
 Alpha  occ. eigenvalues --   -1.15233  -1.01968  -0.98419  -0.86810  -0.86272
 Alpha  occ. eigenvalues --   -0.79715  -0.72730  -0.72296  -0.71693  -0.66835
 Alpha  occ. eigenvalues --   -0.64423  -0.61861  -0.58921  -0.58778  -0.58620
 Alpha  occ. eigenvalues --   -0.58221  -0.53844  -0.53059  -0.52651  -0.51631
 Alpha  occ. eigenvalues --   -0.51103  -0.49624  -0.47880  -0.47821  -0.45158
 Alpha  occ. eigenvalues --   -0.44635  -0.44438  -0.44398  -0.42133  -0.34907
 Alpha  occ. eigenvalues --   -0.32907  -0.32525  -0.31828  -0.30719
 Alpha virt. eigenvalues --   -0.01247  -0.00789  -0.00117  -0.00052   0.00380
 Alpha virt. eigenvalues --    0.00908   0.01260   0.01724   0.02386   0.02822
 Alpha virt. eigenvalues --    0.03346   0.04097   0.04791   0.05390   0.05619
 Alpha virt. eigenvalues --    0.05774   0.07212   0.07601   0.08080   0.08413
 Alpha virt. eigenvalues --    0.09026   0.09261   0.09799   0.10535   0.10982
 Alpha virt. eigenvalues --    0.11265   0.11746   0.12055   0.12385   0.12893
 Alpha virt. eigenvalues --    0.13049   0.13189   0.13487   0.14020   0.14449
 Alpha virt. eigenvalues --    0.14728   0.15008   0.15422   0.15772   0.16031
 Alpha virt. eigenvalues --    0.16275   0.16643   0.16848   0.17368   0.17925
 Alpha virt. eigenvalues --    0.18818   0.19562   0.19672   0.20043   0.21252
 Alpha virt. eigenvalues --    0.21526   0.22018   0.22383   0.22812   0.23346
 Alpha virt. eigenvalues --    0.24815   0.24999   0.25171   0.26189   0.26765
 Alpha virt. eigenvalues --    0.27320   0.27673   0.28138   0.29507   0.29825
 Alpha virt. eigenvalues --    0.30179   0.31170   0.31732   0.31931   0.32079
 Alpha virt. eigenvalues --    0.32797   0.33132   0.33517   0.34104   0.35243
 Alpha virt. eigenvalues --    0.36472   0.37291   0.37451   0.37873   0.39234
 Alpha virt. eigenvalues --    0.39598   0.41395   0.42269   0.42773   0.43805
 Alpha virt. eigenvalues --    0.44741   0.47807   0.48940   0.50383   0.51800
 Alpha virt. eigenvalues --    0.52196   0.53150   0.53421   0.54883   0.56416
 Alpha virt. eigenvalues --    0.57385   0.58012   0.58245   0.58850   0.59362
 Alpha virt. eigenvalues --    0.59464   0.60691   0.60832   0.61505   0.62582
 Alpha virt. eigenvalues --    0.63428   0.64721   0.65250   0.66808   0.68144
 Alpha virt. eigenvalues --    0.69189   0.69350   0.71421   0.72064   0.72797
 Alpha virt. eigenvalues --    0.73228   0.74252   0.75810   0.76257   0.77725
 Alpha virt. eigenvalues --    0.79386   0.79745   0.81031   0.82274   0.83260
 Alpha virt. eigenvalues --    0.85414   0.87284   0.87426   0.89904   0.90482
 Alpha virt. eigenvalues --    0.90913   0.92543   0.94005   0.94599   0.96437
 Alpha virt. eigenvalues --    0.97498   0.99559   1.01342   1.02594   1.04858
 Alpha virt. eigenvalues --    1.05842   1.06035   1.07000   1.08085   1.10401
 Alpha virt. eigenvalues --    1.12011   1.12393   1.15086   1.15826   1.17879
 Alpha virt. eigenvalues --    1.17977   1.19433   1.22443   1.23289   1.24313
 Alpha virt. eigenvalues --    1.25188   1.26626   1.30607   1.33505   1.33729
 Alpha virt. eigenvalues --    1.36652   1.37860   1.42859   1.44049   1.48365
 Alpha virt. eigenvalues --    1.49059   1.51555   1.52091   1.53431   1.54416
 Alpha virt. eigenvalues --    1.55058   1.56843   1.59577   1.59830   1.60414
 Alpha virt. eigenvalues --    1.60656   1.61106   1.61645   1.63680   1.65026
 Alpha virt. eigenvalues --    1.65412   1.68188   1.68384   1.70806   1.71155
 Alpha virt. eigenvalues --    1.72471   1.72854   1.74653   1.76543   1.76876
 Alpha virt. eigenvalues --    1.77797   1.79465   1.81381   1.82216   1.83513
 Alpha virt. eigenvalues --    1.86068   1.86366   1.87066   1.89061   1.91400
 Alpha virt. eigenvalues --    1.93743   1.94473   1.96254   1.97310   1.98164
 Alpha virt. eigenvalues --    1.99228   2.00670   2.04300   2.04829   2.06417
 Alpha virt. eigenvalues --    2.09294   2.09857   2.10237   2.11211   2.16738
 Alpha virt. eigenvalues --    2.19063   2.22957   2.29245   2.30031   2.34736
 Alpha virt. eigenvalues --    2.35167   2.43208   2.43707   2.45043   2.47091
 Alpha virt. eigenvalues --    2.48807   2.49698   2.50721   2.51270   2.51811
 Alpha virt. eigenvalues --    2.52554   2.52954   2.56321   2.59141   2.63836
 Alpha virt. eigenvalues --    2.64348   2.64631   2.66616   2.68996   2.70305
 Alpha virt. eigenvalues --    2.72073   2.73076   2.73543   2.74307   2.74419
 Alpha virt. eigenvalues --    2.75990   2.76918   2.78380   2.84821   2.85555
 Alpha virt. eigenvalues --    2.85879   2.88017   2.88696   2.90054   2.92790
 Alpha virt. eigenvalues --    2.94276   2.94724   2.95360   2.97872   2.98961
 Alpha virt. eigenvalues --    3.01251   3.01779   3.03994   3.13736   3.18437
 Alpha virt. eigenvalues --    3.22654   3.27421   3.39189   3.39503   3.43204
 Alpha virt. eigenvalues --    3.44991   3.46983   3.49167   3.52996   3.55755
 Alpha virt. eigenvalues --    3.57189   3.61950   3.65459   3.67660   3.73408
 Alpha virt. eigenvalues --    3.77389   3.79681   3.80761   3.87453   3.89452
 Alpha virt. eigenvalues --    3.96074   4.00526   4.02136   4.02755   4.05383
 Alpha virt. eigenvalues --    4.07745   4.08531   4.16033   4.19643   4.21221
 Alpha virt. eigenvalues --    4.85278   4.94467   4.97577   5.01746   5.10536
 Alpha virt. eigenvalues --    5.18947   5.22204   5.33732   5.80518   5.87820
 Alpha virt. eigenvalues --    6.56259   6.60457   6.91194  23.68256  23.99927
 Alpha virt. eigenvalues --   24.00012  24.01049  24.04147  24.05001  24.15158
 Alpha virt. eigenvalues --   24.16838  24.26778  35.69807  50.05190  50.13164
 Alpha virt. eigenvalues --   66.95361
          Condensed to atoms (all electrons):
               1          2          3          4          5          6
     1  C   16.869433  -7.661877   5.019221  -5.176426   5.383237  -7.853066
     2  C   -7.661877  16.316857  -5.342742   4.525692  -5.036615   2.521999
     3  C    5.019221  -5.342742  11.175682  -4.390772   4.815963  -5.014914
     4  C   -5.176426   4.525692  -4.390772  10.629412  -4.792817   4.881842
     5  C    5.383237  -5.036615   4.815963  -4.792817  11.989546  -6.066824
     6  C   -7.853066   2.521999  -5.014914   4.881842  -6.066824  16.829786
     7  F    0.680929  -0.434090   0.084866  -0.055145   0.068657  -0.413402
     8  H   -0.346816   0.757677  -0.220409   0.136008  -0.123825   0.095738
     9  H    0.118204  -0.092616   0.388198  -0.107961   0.047757  -0.029163
    10  H   -0.051783   0.046563  -0.075905   0.439362  -0.092620   0.060035
    11  H    0.155606  -0.048197   0.076343  -0.161591   0.469229  -0.165268
    12  H   -0.475592   0.140731  -0.165339   0.206715  -0.326000   0.896608
    13  O    0.014127  -0.005259  -0.002269   0.000174  -0.002236   0.000209
    14  C    0.006632  -0.006109   0.002388  -0.000872   0.002323  -0.005763
    15  H    0.001043  -0.000657  -0.000028  -0.000021  -0.000021  -0.000545
    16  H   -0.001429   0.000962  -0.000079   0.000043  -0.000026   0.000501
    17  H   -0.157646   0.120501  -0.082717   0.047789  -0.061882   0.083819
    18  N   -0.003805  -0.030310   0.021498   0.002226   0.011382   0.013675
    19  C    0.059218  -0.045602   0.015001  -0.007245   0.009832  -0.008277
    20  O    0.001865  -0.000674  -0.000246  -0.000302   0.001064  -0.001283
    21  C   -0.019821   0.042741  -0.008526   0.004768  -0.003315  -0.016461
    22  H    0.007735  -0.002111   0.002258  -0.001210   0.000603  -0.004213
    23  H    0.007190  -0.006350   0.000244  -0.000826   0.000123   0.001718
    24  H    0.003364   0.004876  -0.000634  -0.000027   0.002543  -0.007065
    25  H    0.049479  -0.002271   0.001303  -0.002949  -0.010520  -0.014026
               7          8          9         10         11         12
     1  C    0.680929  -0.346816   0.118204  -0.051783   0.155606  -0.475592
     2  C   -0.434090   0.757677  -0.092616   0.046563  -0.048197   0.140731
     3  C    0.084866  -0.220409   0.388198  -0.075905   0.076343  -0.165339
     4  C   -0.055145   0.136008  -0.107961   0.439362  -0.161591   0.206715
     5  C    0.068657  -0.123825   0.047757  -0.092620   0.469229  -0.326000
     6  C   -0.413402   0.095738  -0.029163   0.060035  -0.165268   0.896608
     7  F    9.159478  -0.029504   0.001039  -0.000444   0.000462  -0.023082
     8  H   -0.029504   0.500405  -0.008164   0.002824  -0.001105   0.006459
     9  H    0.001039  -0.008164   0.469969  -0.002490   0.001333  -0.001412
    10  H   -0.000444   0.002824  -0.002490   0.477251  -0.005431   0.004765
    11  H    0.000462  -0.001105   0.001333  -0.005431   0.478597  -0.018097
    12  H   -0.023082   0.006459  -0.001412   0.004765  -0.018097   0.537287
    13  O    0.003674   0.001150  -0.000009  -0.000001  -0.000015   0.001411
    14  C    0.000269  -0.000835   0.000028  -0.000007   0.000033  -0.001011
    15  H   -0.000365  -0.000120   0.000002  -0.000000   0.000002  -0.000160
    16  H   -0.000354   0.000143  -0.000003   0.000000  -0.000001   0.000133
    17  H    0.103262   0.002157  -0.000653  -0.000090  -0.001035   0.010447
    18  N   -0.027262  -0.003127   0.000005   0.000130  -0.000320   0.001881
    19  C   -0.013074   0.000028   0.000254  -0.000027  -0.000087  -0.003243
    20  O    0.000015   0.000079  -0.000005  -0.000010   0.000044  -0.000238
    21  C   -0.004736   0.002704  -0.000613   0.000144  -0.000066  -0.000308
    22  H   -0.000810   0.000032   0.000075  -0.000018   0.000059  -0.000494
    23  H   -0.001215  -0.000807   0.000165  -0.000009   0.000003   0.000086
    24  H    0.000814  -0.000928  -0.000574  -0.000021   0.000047  -0.000359
    25  H   -0.004080   0.000368   0.000042  -0.000093   0.000442  -0.009965
              13         14         15         16         17         18
     1  C    0.014127   0.006632   0.001043  -0.001429  -0.157646  -0.003805
     2  C   -0.005259  -0.006109  -0.000657   0.000962   0.120501  -0.030310
     3  C   -0.002269   0.002388  -0.000028  -0.000079  -0.082717   0.021498
     4  C    0.000174  -0.000872  -0.000021   0.000043   0.047789   0.002226
     5  C   -0.002236   0.002323  -0.000021  -0.000026  -0.061882   0.011382
     6  C    0.000209  -0.005763  -0.000545   0.000501   0.083819   0.013675
     7  F    0.003674   0.000269  -0.000365  -0.000354   0.103262  -0.027262
     8  H    0.001150  -0.000835  -0.000120   0.000143   0.002157  -0.003127
     9  H   -0.000009   0.000028   0.000002  -0.000003  -0.000653   0.000005
    10  H   -0.000001  -0.000007  -0.000000   0.000000  -0.000090   0.000130
    11  H   -0.000015   0.000033   0.000002  -0.000001  -0.001035  -0.000320
    12  H    0.001411  -0.001011  -0.000160   0.000133   0.010447   0.001881
    13  O    8.105768   0.255835  -0.082148  -0.093362   0.042862  -0.007896
    14  C    0.255835   4.959460   0.377554   0.385162  -0.014187   0.002447
    15  H   -0.082148   0.377554   0.727977  -0.139928   0.003076   0.000381
    16  H   -0.093362   0.385162  -0.139928   0.742297  -0.000666   0.000266
    17  H    0.042862  -0.014187   0.003076  -0.000666   0.656350   0.319753
    18  N   -0.007896   0.002447   0.000381   0.000266   0.319753   7.269678
    19  C   -0.005617   0.001212  -0.000107  -0.000244  -0.128998   0.083891
    20  O    0.000052  -0.000220   0.000086  -0.000030   0.009548  -0.173002
    21  C   -0.003873   0.002670  -0.001261   0.000305  -0.087489   0.117355
    22  H    0.000182   0.000433  -0.000487   0.000072  -0.027424  -0.107489
    23  H   -0.000543   0.000087   0.000520  -0.000260  -0.010040  -0.048976
    24  H   -0.000136  -0.000327   0.000203  -0.000080   0.020823  -0.053712
    25  H   -0.001291  -0.000090   0.000457  -0.000209  -0.023536  -0.267095
              19         20         21         22         23         24
     1  C    0.059218   0.001865  -0.019821   0.007735   0.007190   0.003364
     2  C   -0.045602  -0.000674   0.042741  -0.002111  -0.006350   0.004876
     3  C    0.015001  -0.000246  -0.008526   0.002258   0.000244  -0.000634
     4  C   -0.007245  -0.000302   0.004768  -0.001210  -0.000826  -0.000027
     5  C    0.009832   0.001064  -0.003315   0.000603   0.000123   0.002543
     6  C   -0.008277  -0.001283  -0.016461  -0.004213   0.001718  -0.007065
     7  F   -0.013074   0.000015  -0.004736  -0.000810  -0.001215   0.000814
     8  H    0.000028   0.000079   0.002704   0.000032  -0.000807  -0.000928
     9  H    0.000254  -0.000005  -0.000613   0.000075   0.000165  -0.000574
    10  H   -0.000027  -0.000010   0.000144  -0.000018  -0.000009  -0.000021
    11  H   -0.000087   0.000044  -0.000066   0.000059   0.000003   0.000047
    12  H   -0.003243  -0.000238  -0.000308  -0.000494   0.000086  -0.000359
    13  O   -0.005617   0.000052  -0.003873   0.000182  -0.000543  -0.000136
    14  C    0.001212  -0.000220   0.002670   0.000433   0.000087  -0.000327
    15  H   -0.000107   0.000086  -0.001261  -0.000487   0.000520   0.000203
    16  H   -0.000244  -0.000030   0.000305   0.000072  -0.000260  -0.000080
    17  H   -0.128998   0.009548  -0.087489  -0.027424  -0.010040   0.020823
    18  N    0.083891  -0.173002   0.117355  -0.107489  -0.048976  -0.053712
    19  C    5.050271   0.474499  -0.028154   0.039047  -0.010132  -0.008665
    20  O    0.474499   8.122596  -0.041537   0.037984  -0.002276  -0.002934
    21  C   -0.028154  -0.041537   5.282963   0.425422   0.418266   0.389870
    22  H    0.039047   0.037984   0.425422   0.459953  -0.023753  -0.023590
    23  H   -0.010132  -0.002276   0.418266  -0.023753   0.574803  -0.067030
    24  H   -0.008665  -0.002934   0.389870  -0.023590  -0.067030   0.585798
    25  H    0.429835  -0.023404  -0.001726   0.015929  -0.002882  -0.002429
              25
     1  C    0.049479
     2  C   -0.002271
     3  C    0.001303
     4  C   -0.002949
     5  C   -0.010520
     6  C   -0.014026
     7  F   -0.004080
     8  H    0.000368
     9  H    0.000042
    10  H   -0.000093
    11  H    0.000442
    12  H   -0.009965
    13  O   -0.001291
    14  C   -0.000090
    15  H    0.000457
    16  H   -0.000209
    17  H   -0.023536
    18  N   -0.267095
    19  C    0.429835
    20  O   -0.023404
    21  C   -0.001726
    22  H    0.015929
    23  H   -0.002882
    24  H   -0.002429
    25  H    0.764424
 Mulliken charges:
               1
     1  C   -0.629021
     2  C    0.236880
     3  C   -0.298385
     4  C   -0.175868
     5  C   -0.285558
     6  C    0.214341
     7  F   -0.095902
     8  H    0.229869
     9  H    0.216590
    10  H    0.197877
    11  H    0.219013
    12  H    0.218776
    13  O   -0.220790
    14  C    0.032888
    15  H    0.114548
    16  H    0.106786
    17  H    0.175977
    18  N   -0.121575
    19  C    0.096382
    20  O   -0.401672
    21  C   -0.469325
    22  H    0.201817
    23  H    0.171895
    24  H    0.160171
    25  H    0.104286
 Sum of Mulliken charges =  -0.00000
 Mulliken charges with hydrogens summed into heavy atoms:
               1
     1  C   -0.629021
     2  C    0.466749
     3  C   -0.081796
     4  C    0.022010
     5  C   -0.066545
     6  C    0.433117
     7  F   -0.095902
    13  O   -0.220790
    14  C    0.254222
    18  N    0.054402
    19  C    0.200668
    20  O   -0.401672
    21  C    0.064557
 Electronic spatial extent (au):  <R**2>=           3886.7295
 Charge=              0.0000 electrons
 Dipole moment (field-independent basis, Debye):
    X=             -1.6358    Y=              3.8554    Z=              1.2482  Tot=              4.3701
 Quadrupole moment (field-independent basis, Debye-Ang):
   XX=            -62.4546   YY=            -89.3706   ZZ=            -68.8257
   XY=             21.7915   XZ=              3.3950   YZ=             -4.0681
 Traceless Quadrupole moment (field-independent basis, Debye-Ang):
   XX=             11.0957   YY=            -15.8203   ZZ=              4.7246
   XY=             21.7915   XZ=              3.3950   YZ=             -4.0681
 Octapole moment (field-independent basis, Debye-Ang**2):
  XXX=             40.7934  YYY=             82.6588  ZZZ=             -2.1953  XYY=             10.9041
  XXY=             69.7299  XXZ=             11.3186  XZZ=             -2.9062  YZZ=              3.6513
  YYZ=             16.8807  XYZ=            -18.6986
 Hexadecapole moment (field-independent basis, Debye-Ang**3):
 XXXX=          -2813.4737 YYYY=          -1481.7603 ZZZZ=           -478.2677 XXXY=            400.9034
 XXXZ=             11.1421 YYYX=            278.6982 YYYZ=            -63.0775 ZZZX=             -2.4255
 ZZZY=              4.6423 XXYY=           -754.0439 XXZZ=           -581.1888 YYZZ=           -325.3350
 XXYZ=            -35.7006 YYXZ=             41.3649 ZZXY=              9.9223
 N-N= 7.220795152218D+02 E-N=-2.978031606738D+03  KE= 6.528216944601D+02
 1\1\GINC-LOCALHOST\POpt\RM062X\6-311++G(d,p)\C9H12F1N1O2\LYWU\20-Mar-2
 024\1\\# opt=z-matrix 6-311++g(d,p) m062x\\test\\0,1\C\C,1,B1\C,2,B2,1
 ,A1\C,3,B3,2,A2,1,D1,0\C,4,B4,3,A3,2,D2,0\C,1,B5,2,A4,3,D3,0\F,1,B6,2,
 A5,3,D4,0\H,2,B7,1,A6,6,D5,0\H,3,B8,2,A7,1,D6,0\H,4,B9,3,A8,2,D7,0\H,5
 ,B10,4,A9,3,D8,0\H,6,B11,1,A10,2,D9,0\O,1,B12,2,A11,3,D10,0\C,13,B13,1
 ,A12,2,D11,0\H,14,B14,13,A13,1,D12,0\H,14,B15,13,A14,1,D13,0\H,7,B16,1
 ,A15,2,D14,0\N,17,B17,7,A16,1,D15,0\C,18,B18,17,A17,7,D16,0\O,19,B19,1
 8,A18,17,D17,0\C,18,B20,17,A19,19,D18,0\H,21,B21,18,A20,17,D19,0\H,21,
 B22,18,A21,17,D20,0\H,21,B23,18,A22,17,D21,0\H,19,B24,18,A23,17,D22,0\
 \B1=1.38821546\B2=1.39020451\B3=1.38729468\B4=1.38735283\B5=1.38835021
 \B6=1.34432537\B7=1.08377277\B8=1.08270704\B9=1.08312432\B10=1.0826943
 9\B11=1.08380896\B12=4.44262174\B13=1.19923952\B14=1.10355569\B15=1.10
 366859\B16=2.10375933\B17=1.00779912\B18=1.35860174\B19=1.21274673\B20
 =1.44946563\B21=1.08563065\B22=1.09299285\B23=1.0931074\B24=1.10173525
 \A1=120.00000011\A2=120.\A3=119.99999989\A4=119.97770821\A5=119.999999
 9\A6=120.00000011\A7=120.00000011\A8=120.\A9=120.00000011\A10=119.9155
 3063\A11=119.9999999\A12=179.90000005\A13=119.99996989\A14=119.9999698
 9\A15=100.00000001\A16=179.9\A17=119.5\A18=123.2\A19=121.9\A20=110.7\A
 21=110.7\A22=110.7\A23=113.46721803\D1=0.\D2=0.\D3=1.71722694\D4=-180.
 \D5=-178.28277306\D6=180.\D7=180.\D8=180.\D9=-177.77151684\D10=-180.\D
 11=180.\D12=-90.04490481\D13=90.04490481\D14=90.\D15=90.\D16=0.\D17=-1
 80.\D18=-180.\D19=-180.\D20=-60.\D21=60.\D22=0.\\Version=ES64L-G16RevB
 .01\State=1-A\HF=-655.1031416\RMSD=6.874e-09\RMSF=4.537e-03\Dipole=-0.
 3091572,-1.5812144,0.6002024\Quadrupole=14.728798,-19.0775732,4.348775
 2,0.7809724,5.2453211,7.7037968\PG=C01 [X(C9H12F1N1O2)]\\@


 SACRED COWS MAKE GREAT HAMBURGERS -- ROBERT REISNER
 Job cpu time:       0 days  2 hours 16 minutes 39.5 seconds.
 Elapsed time:       0 days  0 hours 34 minutes 14.0 seconds.
 File lengths (MBytes):  RWF=     86 Int=      0 D2E=      0 Chk=     14 Scr=      1
 Normal termination of Gaussian 16 at Wed Mar 20 11:27:01 2024.
