 Entering Gaussian System, Link 0=g16
 Input=model_H2b.gjf
 Output=model_H2b.log
 Initial command:
 /home/zjxu/prog/g16/l1.exe "/home/zjxu/zjhan/5_model/HCl/water/Gau-46100.inp" -scrdir="/home/zjxu/zjhan/5_model/HCl/water/"
 Entering Link 1 = /home/zjxu/prog/g16/l1.exe PID=     46101.
  
 Copyright (c) 1988-2017, Gaussian, Inc.  All Rights Reserved.
  
 This is part of the Gaussian(R) 16 program.  It is based on
 the Gaussian(R) 09 system (copyright 2009, Gaussian, Inc.),
 the Gaussian(R) 03 system (copyright 2003, Gaussian, Inc.),
 the Gaussian(R) 98 system (copyright 1998, Gaussian, Inc.),
 the Gaussian(R) 94 system (copyright 1995, Gaussian, Inc.),
 the Gaussian 92(TM) system (copyright 1992, Gaussian, Inc.),
 the Gaussian 90(TM) system (copyright 1990, Gaussian, Inc.),
 the Gaussian 88(TM) system (copyright 1988, Gaussian, Inc.),
 the Gaussian 86(TM) system (copyright 1986, Carnegie Mellon
 University), and the Gaussian 82(TM) system (copyright 1983,
 Carnegie Mellon University). Gaussian is a federally registered
 trademark of Gaussian, Inc.
  
 This software contains proprietary and confidential information,
 including trade secrets, belonging to Gaussian, Inc.
  
 This software is provided under written license and may be
 used, copied, transmitted, or stored only in accord with that
 written license.
  
 The following legend is applicable only to US Government
 contracts under FAR:
  
                    RESTRICTED RIGHTS LEGEND
  
 Use, reproduction and disclosure by the US Government is
 subject to restrictions as set forth in subparagraphs (a)
 and (c) of the Commercial Computer Software - Restricted
 Rights clause in FAR 52.227-19.
  
 Gaussian, Inc.
 340 Quinnipiac St., Bldg. 40, Wallingford CT 06492
  
  
 ---------------------------------------------------------------
 Warning -- This program may not be used in any manner that
 competes with the business of Gaussian, Inc. or will provide
 assistance to any competitor of Gaussian, Inc.  The licensee
 of this program is prohibited from giving any competitor of
 Gaussian, Inc. access to this program.  By using this program,
 the user acknowledges that Gaussian, Inc. is engaged in the
 business of creating and licensing software in the field of
 computational chemistry and represents and warrants to the
 licensee that it is not a competitor of Gaussian, Inc. and that
 it will not use this program in any manner prohibited above.
 ---------------------------------------------------------------
  

 Cite this work as:
 Gaussian 16, Revision B.01,
 M. J. Frisch, G. W. Trucks, H. B. Schlegel, G. E. Scuseria, 
 M. A. Robb, J. R. Cheeseman, G. Scalmani, V. Barone, 
 G. A. Petersson, H. Nakatsuji, X. Li, M. Caricato, A. V. Marenich, 
 J. Bloino, B. G. Janesko, R. Gomperts, B. Mennucci, H. P. Hratchian, 
 J. V. Ortiz, A. F. Izmaylov, J. L. Sonnenberg, D. Williams-Young, 
 F. Ding, F. Lipparini, F. Egidi, J. Goings, B. Peng, A. Petrone, 
 T. Henderson, D. Ranasinghe, V. G. Zakrzewski, J. Gao, N. Rega, 
 G. Zheng, W. Liang, M. Hada, M. Ehara, K. Toyota, R. Fukuda, 
 J. Hasegawa, M. Ishida, T. Nakajima, Y. Honda, O. Kitao, H. Nakai, 
 T. Vreven, K. Throssell, J. A. Montgomery, Jr., J. E. Peralta, 
 F. Ogliaro, M. J. Bearpark, J. J. Heyd, E. N. Brothers, K. N. Kudin, 
 V. N. Staroverov, T. A. Keith, R. Kobayashi, J. Normand, 
 K. Raghavachari, A. P. Rendell, J. C. Burant, S. S. Iyengar, 
 J. Tomasi, M. Cossi, J. M. Millam, M. Klene, C. Adamo, R. Cammi, 
 J. W. Ochterski, R. L. Martin, K. Morokuma, O. Farkas, 
 J. B. Foresman, and D. J. Fox, Gaussian, Inc., Wallingford CT, 2016.
 
 ******************************************
 Gaussian 16:  ES64L-G16RevB.01 20-Dec-2017
                 3-Apr-2024 
 ******************************************
 %mem=2GB
 %nproc=2
 Will use up to    2 processors via shared memory.
 %chk=model_H2b
 -------------------------------------------------------
 # m062x 6-311++G(d,p) opt=z-matrix scrf=(solvent=water)
 -------------------------------------------------------
 1/10=7,18=40,26=3,38=1/1,3;
 2/12=2,17=6,18=5,29=3,40=1/2;
 3/5=4,6=6,7=1111,11=2,25=1,30=1,70=2201,71=1,72=1,74=-55/1,2,3;
 4//1;
 5/5=2,38=5,53=1/2;
 6/7=2,8=2,9=2,10=2,28=1/1;
 7/29=1/1,2,3,16;
 1/10=7,18=40,26=3/3(2);
 2/29=3/2;
 99//99;
 2/29=3/2;
 3/5=4,6=6,7=1111,11=2,25=1,30=1,70=2205,71=1,72=1,74=-55/1,2,3;
 4/5=5,16=3,69=1/1;
 5/5=2,38=5,53=1/2;
 7//1,2,3,16;
 1/18=40,26=3/3(-5);
 2/29=3/2;
 6/7=2,8=2,9=2,10=2,19=2,28=1/1;
 99/9=1/99;
 ----
 test
 ----
 Symbolic Z-matrix:
 Charge =  0 Multiplicity = 1
 C1
 C2                   1    d1
 C3                   2    d2       1     120. 
 C4                   3    d3       2     120.     1     0.       0
 C5                   4    d4       3     120.     2     0.       0
 C6                   5    d5       4     120.     3     0.       0
 F7                   1    d6       2     120.     3     180.     0
 H8                   2    d7       3     120.     4     180.     0
 H9                   3    d8       4     120.     5     180.     0
 H10                  4    d9       5     120.     6     180.     0
 H11                  5    d10      6     120.     1     180.     0
 H12                  6    d11      1     120.     2     180.     0
 O13                  7    d12      1     179.9    3     180.     0
 C14                  13   d13      1     179.9    2     180.     0
 H15                  14   d14      1     120.     2     90.      0
 H16                  14   d15      1     120.     2    -90.      0
 H17                  7    d16      1     100.     2     90.      0
 Cl18                 17   d17      7     160.     1     0.       0
 H19                  7    d18      1     100.     2    -90.      0
 Cl20                 19   d19      7     160.     1     0.       0
       Variables:
  d1                    1.3                      
  d2                    1.3                      
  d3                    1.3                      
  d4                    1.3                      
  d5                    1.3                      
  d6                    1.4                      
  d7                    1.                       
  d8                    1.                       
  d9                    1.                       
  d10                   1.                       
  d11                   1.                       
  d12                   2.8                      
  d13                   1.2                      
  d14                   1.                       
  d15                   1.                       
  d16                   2.3                      
  d17                   0.9                      
  d18                   2.3                      
  d19                   0.9                      
 

 GradGradGradGradGradGradGradGradGradGradGradGradGradGradGradGradGradGrad
 Berny optimization.
 Initialization pass.
                       ----------------------------
                       !    Initial Parameters    !
                       ! (Angstroms and Degrees)  !
 ----------------------                            ----------------------
 !      Name          Value   Derivative information (Atomic Units)     !
 ------------------------------------------------------------------------
 !       d1          1.3      estimate D2E/DX2                          !
 !       d2          1.3      estimate D2E/DX2                          !
 !       d3          1.3      estimate D2E/DX2                          !
 !       d4          1.3      estimate D2E/DX2                          !
 !       d5          1.3      estimate D2E/DX2                          !
 !       d6          1.4      estimate D2E/DX2                          !
 !       d7          1.0      estimate D2E/DX2                          !
 !       d8          1.0      estimate D2E/DX2                          !
 !       d9          1.0      estimate D2E/DX2                          !
 !       d10         1.0      estimate D2E/DX2                          !
 !       d11         1.0      estimate D2E/DX2                          !
 !       d12         2.8      estimate D2E/DX2                          !
 !       d13         1.2      estimate D2E/DX2                          !
 !       d14         1.0      estimate D2E/DX2                          !
 !       d15         1.0      estimate D2E/DX2                          !
 !       d16         2.3      estimate D2E/DX2                          !
 !       d17         0.9      estimate D2E/DX2                          !
 !       d18         2.3      estimate D2E/DX2                          !
 !       d19         0.9      estimate D2E/DX2                          !
 ------------------------------------------------------------------------
 Trust Radius=3.00D-01 FncErr=1.00D-07 GrdErr=1.00D-06 EigMax=2.50D+02 EigMin=1.00D-04
 Number of steps in this run=     29 maximum allowed number of steps=    100.
 GradGradGradGradGradGradGradGradGradGradGradGradGradGradGradGradGradGrad

 ---------------------------------------------------------------------------------------------------
                            Z-MATRIX (ANGSTROMS AND DEGREES)
   CD    Cent   Atom    N1       Length/X        N2       Alpha/Y        N3        Beta/Z          J
 ---------------------------------------------------------------------------------------------------
      1      1  C 
      2      2  C        1   1.300000(     1)
      3      3  C        2   1.300000(     2)      1  120.000(    20)
      4      4  C        3   1.300000(     3)      2  120.000(    21)      1    0.000(    38)      0
      5      5  C        4   1.300000(     4)      3  120.000(    22)      2    0.000(    39)      0
      6      6  C        5   1.300000(     5)      4  120.000(    23)      3    0.000(    40)      0
      7      7  F        1   1.400000(     6)      2  120.000(    24)      3  180.000(    41)      0
      8      8  H        2   1.000000(     7)      3  120.000(    25)      4  180.000(    42)      0
      9      9  H        3   1.000000(     8)      4  120.000(    26)      5  180.000(    43)      0
     10     10  H        4   1.000000(     9)      5  120.000(    27)      6  180.000(    44)      0
     11     11  H        5   1.000000(    10)      6  120.000(    28)      1  180.000(    45)      0
     12     12  H        6   1.000000(    11)      1  120.000(    29)      2  180.000(    46)      0
     13     13  O        7   2.800000(    12)      1  179.900(    30)      3  180.000(    47)      0
     14     14  C       13   1.200000(    13)      1  179.900(    31)      2  180.000(    48)      0
     15     15  H       14   1.000000(    14)      1  120.000(    32)      2   90.000(    49)      0
     16     16  H       14   1.000000(    15)      1  120.000(    33)      2  -90.000(    50)      0
     17     17  H        7   2.300000(    16)      1  100.000(    34)      2   90.000(    51)      0
     18     18  Cl      17   0.900000(    17)      7  160.000(    35)      1    0.000(    52)      0
     19     19  H        7   2.300000(    18)      1  100.000(    36)      2  -90.000(    53)      0
     20     20  Cl      19   0.900000(    19)      7  160.000(    37)      1    0.000(    54)      0
 ---------------------------------------------------------------------------------------------------
                         Z-Matrix orientation:                         
 ---------------------------------------------------------------------
 Center     Atomic      Atomic             Coordinates (Angstroms)
 Number     Number       Type             X           Y           Z
 ---------------------------------------------------------------------
      1          6           0        0.000000    0.000000    0.000000
      2          6           0        0.000000    0.000000    1.300000
      3          6           0        1.125833    0.000000    1.950000
      4          6           0        2.251666    0.000000    1.300000
      5          6           0        2.251666    0.000000   -0.000000
      6          6           0        1.125833    0.000000   -0.650000
      7          9           0       -1.212436   -0.000000   -0.700000
      8          1           0       -0.866025   -0.000000    1.800000
      9          1           0        1.125833   -0.000000    2.950000
     10          1           0        3.117691   -0.000000    1.800000
     11          1           0        3.117691   -0.000000   -0.500000
     12          1           0        1.125833   -0.000000   -1.650000
     13          8           0       -3.634860   -0.000000   -2.104230
     14          6           0       -4.672340   -0.000000   -2.707251
     15          1           0       -5.104965    0.866025   -2.957922
     16          1           0       -5.104965   -0.866025   -2.957922
     17          1           0       -1.558318    2.265058   -0.899695
     18         17           0       -1.422973    3.151385   -0.821554
     19          1           0       -1.558318   -2.265058   -0.899695
     20         17           0       -1.422973   -3.151385   -0.821554
 ---------------------------------------------------------------------
                    Distance matrix (angstroms):
                    1          2          3          4          5
     1  C    0.000000
     2  C    1.300000   0.000000
     3  C    2.251666   1.300000   0.000000
     4  C    2.600000   2.251666   1.300000   0.000000
     5  C    2.251666   2.600000   2.251666   1.300000   0.000000
     6  C    1.300000   2.251666   2.600000   2.251666   1.300000
     7  F    1.400000   2.338803   3.534119   4.000000   3.534119
     8  H    1.997498   1.000000   1.997498   3.157531   3.600000
     9  H    3.157531   1.997498   1.000000   1.997498   3.157531
    10  H    3.600000   3.157531   1.997498   1.000000   1.997498
    11  H    3.157531   3.600000   3.157531   1.997498   1.000000
    12  H    1.997498   3.157531   3.600000   3.157531   1.997498
    13  O    4.199999   4.980059   6.253077   6.799997   6.251317
    14  C    5.399997   6.155390   7.436988   7.999995   7.434452
    15  H    5.963218   6.703772   7.978755   8.543999   7.976172
    16  H    5.963218   6.703772   7.978755   8.543999   7.976172
    17  H    2.892800   3.521009   4.522822   4.948245   4.522822
    18  Cl   3.554016   4.056731   4.910107   5.285375   4.910107
    19  H    2.892800   3.521009   4.522822   4.948245   4.522822
    20  Cl   3.554016   4.056731   4.910107   5.285375   4.910107
                    6          7          8          9         10
     6  C    0.000000
     7  F    2.338803   0.000000
     8  H    3.157531   2.523886   0.000000
     9  H    3.600000   4.334743   2.300000   0.000000
    10  H    3.157531   5.000000   3.983717   2.300000   0.000000
    11  H    1.997498   4.334743   4.600000   3.983717   2.300000
    12  H    1.000000   2.523886   3.983717   4.600000   3.983717
    13  O    4.977849   2.800000   4.786382   6.943301   7.799997
    14  C    6.152324   3.999999   5.899436   8.100821   8.999995
    15  H    6.700697   4.582575   6.430896   8.629970   9.539387
    16  H    6.700697   4.582575   6.430896   8.629970   9.539387
    17  H    3.521009   2.300000   3.591394   5.211076   5.855246
    18  Cl   4.056731   3.160748   4.136902   5.536448   6.117303
    19  H    3.521009   2.300000   3.591394   5.211076   5.855246
    20  Cl   4.056731   3.160748   4.136902   5.536448   6.117303
                   11         12         13         14         15
    11  H    0.000000
    12  H    2.300000   0.000000
    13  O    6.940497   4.782313   0.000000
    14  C    8.096700   5.893776   1.200000   0.000000
    15  H    8.625744   6.425224   1.907878   1.000000   0.000000
    16  H    8.625744   6.425224   1.907878   1.000000   1.732051
    17  H    5.211076   3.591394   3.300517   4.253807   4.332700
    18  Cl   5.536448   4.136902   4.058193   4.903618   4.831563
    19  H    5.211076   3.591394   3.300517   4.253807   5.159329
    20  Cl   5.536448   4.136902   4.058193   4.903618   5.853266
                   16         17         18         19         20
    16  H    0.000000
    17  H    5.159329   0.000000
    18  Cl   5.853266   0.900000   0.000000
    19  H    4.332700   4.530116   5.418697   0.000000
    20  Cl   4.831563   5.418697   6.302770   0.900000   0.000000
 Stoichiometry    C7H9Cl2FO
 Framework group  CS[SG(C7H5FO),X(H4Cl2)]
 Deg. of freedom    34
 Full point group                 CS      NOp   2
 Largest Abelian subgroup         CS      NOp   2
 Largest concise Abelian subgroup CS      NOp   2
                         Standard orientation:                         
 ---------------------------------------------------------------------
 Center     Atomic      Atomic             Coordinates (Angstroms)
 Number     Number       Type             X           Y           Z
 ---------------------------------------------------------------------
      1          6           0       -0.001056   -0.924160    0.000000
      2          6           0       -1.126889   -1.574160    0.000000
      3          6           0       -1.126889   -2.874160    0.000000
      4          6           0       -0.001056   -3.524160    0.000000
      5          6           0        1.124777   -2.874160    0.000000
      6          6           0        1.124777   -1.574160    0.000000
      7          9           0       -0.001056    0.475840    0.000000
      8          1           0       -1.992914   -1.074160    0.000000
      9          1           0       -1.992914   -3.374160    0.000000
     10          1           0       -0.001056   -4.524160    0.000000
     11          1           0        1.990803   -3.374160    0.000000
     12          1           0        1.990803   -1.074160    0.000000
     13          8           0        0.003831    3.275836    0.000000
     14          6           0        0.007322    4.475831    0.000000
     15          1           0        0.008098    4.975830    0.866025
     16          1           0        0.008098    4.975830   -0.866025
     17          1           0       -0.001056    0.875231    2.265058
     18         17           0       -0.001056    0.718947    3.151385
     19          1           0       -0.001056    0.875231   -2.265058
     20         17           0       -0.001056    0.718947   -3.151385
 ---------------------------------------------------------------------
 Rotational constants (GHZ):           0.6452293           0.4842512           0.3020406
 Standard basis: 6-311++G(d,p) (5D, 7F)
 There are   228 symmetry adapted cartesian basis functions of A'  symmetry.
 There are   104 symmetry adapted cartesian basis functions of A"  symmetry.
 There are   218 symmetry adapted basis functions of A'  symmetry.
 There are   103 symmetry adapted basis functions of A"  symmetry.
   321 basis functions,   511 primitive gaussians,   332 cartesian basis functions
    51 alpha electrons       51 beta electrons
       nuclear repulsion energy       744.8802280448 Hartrees.
 NAtoms=   20 NActive=   20 NUniq=   17 SFac= 1.38D+00 NAtFMM=   60 NAOKFM=F Big=F
 Integral buffers will be    131072 words long.
 Raffenetti 2 integral format.
 Two-electron integral symmetry is turned on.
 ------------------------------------------------------------------------------
 Polarizable Continuum Model (PCM)
 =================================
 Model                : PCM.
 Atomic radii         : UFF (Universal Force Field).
 Polarization charges : Total charges.
 Charge compensation  : None.
 Solution method      : On-the-fly selection.
 Cavity type          : Scaled VdW (van der Waals Surface) (Alpha=1.100).
 Cavity algorithm     : GePol (No added spheres)
                        Default sphere list used, NSphG=   20.
                        Lebedev-Laikov grids with approx.  5.0 points / Ang**2.
                        Smoothing algorithm: York/Karplus (Gamma=1.0000).
                        Polarization charges: spherical gaussians, with
                                              point-specific exponents (IZeta= 3).
                        Self-potential: point-specific (ISelfS= 7).
                        Self-field    : sphere-specific E.n sum rule (ISelfD= 2).
 1st derivatives      : Analytical E(r).r(x)/FMM algorithm (CHGder, D1EAlg=3).
                        Cavity 1st derivative terms included.
 Solvent              : Water, Eps=  78.355300 Eps(inf)=   1.777849
 ------------------------------------------------------------------------------
 Spheres list:
 ISph  on   Nord     Re0    Alpha      Xe            Ye            Ze
    1   C      1    1.9255  1.100     -0.001056     -0.924160      0.000000
    2   C      2    1.9255  1.100     -1.126889     -1.574160      0.000000
    3   C      3    1.9255  1.100     -1.126889     -2.874160      0.000000
    4   C      4    1.9255  1.100     -0.001056     -3.524160      0.000000
    5   C      5    1.9255  1.100      1.124777     -2.874160      0.000000
    6   C      6    1.9255  1.100      1.124777     -1.574160      0.000000
    7   F      7    1.6820  1.100     -0.001056      0.475840      0.000000
    8   H      8    1.4430  1.100     -1.992914     -1.074160      0.000000
    9   H      9    1.4430  1.100     -1.992914     -3.374160      0.000000
   10   H     10    1.4430  1.100     -0.001056     -4.524160      0.000000
   11   H     11    1.4430  1.100      1.990803     -3.374160      0.000000
   12   H     12    1.4430  1.100      1.990803     -1.074160      0.000000
   13   O     13    1.7500  1.100      0.003831      3.275836      0.000000
   14   C     14    1.9255  1.100      0.007322      4.475831      0.000000
   15   H     15    1.4430  1.100      0.008098      4.975830      0.866025
   16   H     16    1.4430  1.100      0.008098      4.975830     -0.866025
   17   H     17    1.4430  1.100     -0.001056      0.875231      2.265058
   18  Cl     18    1.9735  1.100     -0.001056      0.718947      3.151385
   19   H     19    1.4430  1.100     -0.001056      0.875231     -2.265058
   20  Cl     20    1.9735  1.100     -0.001056      0.718947     -3.151385
 ------------------------------------------------------------------------------
 One-electron integrals computed using PRISM.
 NBasis=   321 RedAO= T EigKep=  3.67D-06  NBF=   218   103
 NBsUse=   320 1.00D-06 EigRej=  3.75D-07 NBFU=   217   103
 ExpMin= 3.60D-02 ExpMax= 1.06D+05 ExpMxC= 3.62D+03 IAcc=3 IRadAn=         5 AccDes= 0.00D+00
 Harris functional with IExCor= 1009 and IRadAn=       5 diagonalized for initial guess.
 HarFok:  IExCor= 1009 AccDes= 0.00D+00 IRadAn=         5 IDoV= 1 UseB2=F ITyADJ=14
 ICtDFT=  3500011 ScaDFX=  1.000000  1.000000  1.000000  1.000000
 FoFCou: FMM=F IPFlag=           0 FMFlag=      100000 FMFlg1=           0
         NFxFlg=           0 DoJE=T BraDBF=F KetDBF=T FulRan=T
         wScrn=  0.000000 ICntrl=       500 IOpCl=  0 I1Cent=   200000004 NGrid=           0
         NMat0=    1 NMatS0=      1 NMatT0=    0 NMatD0=    1 NMtDS0=    0 NMtDT0=    0
 Petite list used in FoFCou.
 Initial guess orbital symmetries:
       Occupied  (A") (A') (A') (A') (A') (A') (A') (A') (A') (A')
                 (A') (A") (A') (A') (A") (A') (A") (A') (A") (A')
                 (A') (A') (A") (A') (A') (A') (A') (A') (A') (A')
                 (A') (A") (A') (A') (A') (A') (A") (A') (A') (A")
                 (A') (A') (A") (A') (A") (A") (A") (A') (A") (A')
                 (A")
       Virtual   (A') (A") (A") (A') (A') (A') (A') (A') (A") (A')
                 (A") (A') (A") (A') (A') (A") (A') (A') (A") (A")
                 (A') (A') (A') (A') (A') (A") (A") (A') (A') (A')
                 (A') (A") (A') (A') (A') (A") (A") (A') (A") (A')
                 (A') (A") (A') (A') (A") (A') (A') (A") (A') (A')
                 (A') (A") (A') (A') (A') (A') (A') (A') (A') (A")
                 (A') (A') (A') (A') (A') (A") (A') (A') (A') (A')
                 (A') (A') (A") (A') (A") (A') (A') (A") (A') (A")
                 (A") (A') (A') (A') (A') (A') (A') (A') (A") (A")
                 (A") (A') (A") (A") (A') (A") (A') (A') (A') (A")
                 (A') (A") (A') (A') (A') (A') (A") (A') (A') (A')
                 (A') (A') (A") (A') (A') (A") (A') (A") (A") (A')
                 (A') (A') (A") (A") (A') (A") (A') (A') (A") (A')
                 (A') (A") (A") (A') (A") (A') (A') (A") (A') (A')
                 (A') (A") (A') (A') (A') (A') (A") (A') (A") (A")
                 (A') (A') (A") (A') (A') (A") (A') (A") (A') (A")
                 (A") (A') (A') (A") (A') (A') (A') (A') (A') (A")
                 (A") (A") (A') (A') (A") (A') (A') (A') (A") (A')
                 (A") (A') (A") (A') (A') (A") (A") (A') (A') (A')
                 (A") (A") (A') (A') (A") (A') (A') (A') (A") (A')
                 (A") (A') (A') (A") (A') (A') (A') (A") (A') (A')
                 (A") (A') (A") (A") (A') (A') (A') (A") (A') (A')
                 (A') (A') (A') (A') (A") (A') (A') (A") (A') (A')
                 (A') (A") (A') (A") (A") (A') (A') (A') (A') (A')
                 (A') (A') (A') (A') (A') (A") (A') (A") (A') (A')
                 (A') (A") (A') (A') (A') (A') (A') (A') (A') (A")
                 (A') (A") (A') (A") (A') (A') (A') (A') (A")
 The electronic state of the initial guess is 1-A'.
 Requested convergence on RMS density matrix=1.00D-08 within 128 cycles.
 Requested convergence on MAX density matrix=1.00D-06.
 Requested convergence on             energy=1.00D-06.
 No special actions if energy rises.
 Inv3:  Mode=1 IEnd=    12484800.
 Iteration    1 A*A^-1 deviation from unit magnitude is 4.66D-15 for   2022.
 Iteration    1 A*A^-1 deviation from orthogonality  is 1.51D-15 for   1337   1227.
 Iteration    1 A^-1*A deviation from unit magnitude is 4.88D-15 for   2022.
 Iteration    1 A^-1*A deviation from orthogonality  is 2.15D-15 for    860     61.
 Error on total polarization charges =  0.01558
 SCF Done:  E(RM062X) =  -1367.06148243     A.U. after   14 cycles
            NFock= 14  Conv=0.28D-08     -V/T= 1.9988

 **********************************************************************

            Population analysis using the SCF Density.

 **********************************************************************

 Orbital symmetries:
       Occupied  (A") (A') (A') (A') (A') (A') (A') (A') (A') (A')
                 (A') (A") (A') (A') (A") (A') (A") (A') (A") (A')
                 (A') (A") (A') (A') (A') (A') (A') (A') (A') (A')
                 (A") (A") (A') (A') (A') (A") (A') (A') (A') (A')
                 (A") (A') (A') (A') (A') (A") (A") (A') (A") (A")
                 (A")
       Virtual   (A') (A') (A') (A') (A") (A') (A") (A") (A') (A')
                 (A") (A') (A") (A') (A") (A') (A') (A") (A') (A')
                 (A") (A") (A') (A') (A') (A') (A') (A') (A") (A')
                 (A') (A") (A") (A') (A") (A') (A') (A') (A') (A")
                 (A') (A') (A') (A") (A') (A") (A') (A') (A') (A")
                 (A') (A') (A") (A') (A') (A") (A') (A') (A') (A')
                 (A') (A') (A") (A') (A') (A') (A') (A') (A') (A')
                 (A") (A") (A') (A') (A") (A') (A') (A') (A') (A')
                 (A") (A") (A') (A') (A") (A') (A") (A') (A') (A")
                 (A") (A') (A") (A') (A') (A") (A') (A") (A') (A')
                 (A") (A') (A') (A') (A') (A') (A") (A') (A') (A')
                 (A') (A") (A') (A") (A') (A') (A') (A") (A') (A')
                 (A') (A') (A") (A") (A') (A') (A') (A") (A') (A")
                 (A") (A") (A") (A') (A") (A") (A') (A') (A') (A')
                 (A') (A") (A') (A') (A") (A') (A') (A') (A') (A")
                 (A") (A') (A") (A") (A') (A') (A') (A") (A") (A')
                 (A') (A") (A') (A") (A') (A') (A') (A") (A') (A')
                 (A") (A") (A') (A') (A") (A') (A') (A') (A") (A')
                 (A') (A") (A") (A') (A') (A") (A') (A') (A") (A")
                 (A') (A") (A') (A') (A") (A') (A') (A') (A') (A")
                 (A') (A') (A') (A') (A") (A') (A') (A') (A") (A")
                 (A') (A") (A") (A") (A') (A') (A') (A") (A') (A')
                 (A') (A') (A') (A") (A') (A") (A') (A') (A') (A')
                 (A') (A") (A') (A") (A") (A') (A') (A') (A') (A')
                 (A') (A') (A') (A') (A') (A") (A') (A") (A') (A')
                 (A') (A") (A') (A') (A') (A') (A') (A') (A') (A")
                 (A') (A") (A') (A") (A') (A') (A') (A') (A")
 The electronic state is 1-A'.
 Alpha  occ. eigenvalues -- -102.65032-102.65032 -25.25567 -19.63906 -10.61573
 Alpha  occ. eigenvalues --  -10.61431 -10.52506 -10.52503 -10.52213 -10.52201
 Alpha  occ. eigenvalues --  -10.51482  -9.81524  -9.81523  -7.54242  -7.54242
 Alpha  occ. eigenvalues --   -7.53072  -7.53072  -7.53071  -7.53071  -1.36144
 Alpha  occ. eigenvalues --   -1.19122  -1.03929  -1.03897  -1.03246  -0.89405
 Alpha  occ. eigenvalues --   -0.88532  -0.74918  -0.73866  -0.72447  -0.66519
 Alpha  occ. eigenvalues --   -0.60470  -0.59776  -0.59217  -0.59168  -0.58480
 Alpha  occ. eigenvalues --   -0.56262  -0.53992  -0.53539  -0.52591  -0.50230
 Alpha  occ. eigenvalues --   -0.47921  -0.47531  -0.44517  -0.42129  -0.41031
 Alpha  occ. eigenvalues --   -0.40999  -0.40990  -0.40961  -0.35049  -0.33960
 Alpha  occ. eigenvalues --   -0.32958
 Alpha virt. eigenvalues --   -0.00456  -0.00198   0.00939   0.01496   0.01596
 Alpha virt. eigenvalues --    0.02422   0.02446   0.03182   0.03614   0.03937
 Alpha virt. eigenvalues --    0.04372   0.05191   0.06813   0.06853   0.07370
 Alpha virt. eigenvalues --    0.07528   0.07768   0.08799   0.10182   0.10756
 Alpha virt. eigenvalues --    0.11408   0.11428   0.11469   0.11966   0.12974
 Alpha virt. eigenvalues --    0.13478   0.13767   0.13941   0.14123   0.14239
 Alpha virt. eigenvalues --    0.14926   0.15138   0.15970   0.16206   0.16272
 Alpha virt. eigenvalues --    0.16427   0.17422   0.17674   0.18497   0.19155
 Alpha virt. eigenvalues --    0.20374   0.20945   0.21717   0.22327   0.22694
 Alpha virt. eigenvalues --    0.23103   0.23291   0.24023   0.25154   0.26333
 Alpha virt. eigenvalues --    0.26548   0.28639   0.28868   0.30727   0.32159
 Alpha virt. eigenvalues --    0.32533   0.32706   0.33364   0.34306   0.36262
 Alpha virt. eigenvalues --    0.36741   0.37719   0.39234   0.41127   0.41568
 Alpha virt. eigenvalues --    0.41803   0.42868   0.43463   0.45593   0.45739
 Alpha virt. eigenvalues --    0.47819   0.49809   0.50223   0.50420   0.51430
 Alpha virt. eigenvalues --    0.53139   0.54694   0.55165   0.56067   0.58483
 Alpha virt. eigenvalues --    0.58745   0.59247   0.59663   0.61151   0.61296
 Alpha virt. eigenvalues --    0.61764   0.63065   0.63747   0.65175   0.65291
 Alpha virt. eigenvalues --    0.66320   0.66779   0.69043   0.70365   0.70514
 Alpha virt. eigenvalues --    0.72033   0.73480   0.76166   0.76927   0.77405
 Alpha virt. eigenvalues --    0.78525   0.80434   0.81646   0.82190   0.85425
 Alpha virt. eigenvalues --    0.86463   0.87915   0.89315   0.90092   0.90691
 Alpha virt. eigenvalues --    0.90956   0.93021   0.93105   0.94402   0.97017
 Alpha virt. eigenvalues --    1.00913   1.01454   1.01833   1.02350   1.02645
 Alpha virt. eigenvalues --    1.06301   1.06872   1.07868   1.08365   1.11561
 Alpha virt. eigenvalues --    1.11752   1.15525   1.16084   1.17006   1.18075
 Alpha virt. eigenvalues --    1.22232   1.23938   1.25015   1.26802   1.28384
 Alpha virt. eigenvalues --    1.33839   1.34834   1.35327   1.36489   1.42893
 Alpha virt. eigenvalues --    1.52299   1.52889   1.53724   1.55499   1.59204
 Alpha virt. eigenvalues --    1.60715   1.61581   1.64606   1.65485   1.67534
 Alpha virt. eigenvalues --    1.68273   1.69993   1.71497   1.74247   1.76528
 Alpha virt. eigenvalues --    1.76810   1.79530   1.80220   1.82073   1.82360
 Alpha virt. eigenvalues --    1.85640   1.85708   1.86747   1.87793   1.90943
 Alpha virt. eigenvalues --    1.94396   1.94532   1.97423   1.99067   2.04544
 Alpha virt. eigenvalues --    2.04660   2.05606   2.06043   2.08029   2.11434
 Alpha virt. eigenvalues --    2.16134   2.17106   2.17424   2.18113   2.20126
 Alpha virt. eigenvalues --    2.21326   2.21739   2.27621   2.29492   2.31253
 Alpha virt. eigenvalues --    2.31958   2.33605   2.37185   2.37300   2.40467
 Alpha virt. eigenvalues --    2.40869   2.46544   2.48773   2.50783   2.50916
 Alpha virt. eigenvalues --    2.58618   2.65334   2.67313   2.70852   2.72678
 Alpha virt. eigenvalues --    2.75606   2.77206   2.78547   2.80015   2.80443
 Alpha virt. eigenvalues --    2.81629   2.86642   2.86732   2.88010   2.90057
 Alpha virt. eigenvalues --    2.91011   2.96385   2.98253   2.98778   3.03444
 Alpha virt. eigenvalues --    3.08773   3.11972   3.24457   3.27287   3.35250
 Alpha virt. eigenvalues --    3.39721   3.41893   3.46063   3.46728   3.55462
 Alpha virt. eigenvalues --    3.60107   3.61698   3.64879   3.75219   3.76396
 Alpha virt. eigenvalues --    3.87413   3.88273   4.00256   4.00723   4.04590
 Alpha virt. eigenvalues --    4.09517   4.14224   4.17781   4.19323   4.26063
 Alpha virt. eigenvalues --    4.26717   4.37101   4.95504   4.95581   5.11538
 Alpha virt. eigenvalues --    5.24623   5.82666   6.56595   6.62084   6.90498
 Alpha virt. eigenvalues --   10.30833  10.33533  23.73399  24.17472  24.27081
 Alpha virt. eigenvalues --   24.31657  24.54263  24.57373  24.72987  25.88187
 Alpha virt. eigenvalues --   25.93931  26.00564  26.06955  27.13116  27.14417
 Alpha virt. eigenvalues --   50.07231  66.97649 216.51621 216.55837
          Condensed to atoms (all electrons):
               1          2          3          4          5          6
     1  C   13.409080  -1.423854  -2.339332   0.106393  -2.341097  -1.435710
     2  C   -1.423854  13.740045   2.020552  -0.954710  -0.686159  -7.004380
     3  C   -2.339332   2.020552   6.597421   0.181412   0.082478  -0.685411
     4  C    0.106393  -0.954710   0.181412   7.554645   0.183030  -0.950534
     5  C   -2.341097  -0.686159   0.082478   0.183030   6.597269   2.021978
     6  C   -1.435710  -7.004380  -0.685411  -0.950534   2.021978  13.746023
     7  F    0.714089  -0.296831  -0.064240  -0.013286  -0.064740  -0.297999
     8  H   -0.138661   0.559229  -0.039965  -0.033985   0.027324  -0.043446
     9  H    0.003362  -0.024686   0.414084  -0.134927   0.008218   0.064391
    10  H    0.036486  -0.023541  -0.068803   0.514462  -0.068839  -0.023403
    11  H    0.003530   0.064402   0.008223  -0.134819   0.414099  -0.024979
    12  H   -0.138453  -0.042848   0.027450  -0.034312  -0.040174   0.558746
    13  O    0.076500  -0.023721  -0.001648  -0.002295  -0.001655  -0.023944
    14  C   -0.006364   0.001480   0.000843  -0.000158   0.000838   0.001429
    15  H   -0.000025  -0.000212  -0.000110   0.000171  -0.000111  -0.000213
    16  H   -0.000025  -0.000212  -0.000110   0.000171  -0.000111  -0.000213
    17  H    0.006390  -0.008208  -0.011842   0.028068  -0.011807  -0.008856
    18  Cl  -0.045149   0.024878   0.015338  -0.030276   0.015326   0.025620
    19  H    0.006390  -0.008208  -0.011842   0.028068  -0.011807  -0.008856
    20  Cl  -0.045149   0.024878   0.015338  -0.030276   0.015326   0.025620
               7          8          9         10         11         12
     1  C    0.714089  -0.138661   0.003362   0.036486   0.003530  -0.138453
     2  C   -0.296831   0.559229  -0.024686  -0.023541   0.064402  -0.042848
     3  C   -0.064240  -0.039965   0.414084  -0.068803   0.008223   0.027450
     4  C   -0.013286  -0.033985  -0.134927   0.514462  -0.134819  -0.034312
     5  C   -0.064740   0.027324   0.008218  -0.068839   0.414099  -0.040174
     6  C   -0.297999  -0.043446   0.064391  -0.023403  -0.024979   0.558746
     7  F    9.241057  -0.020105  -0.000273   0.001009  -0.000272  -0.020057
     8  H   -0.020105   0.492753  -0.009887  -0.000092   0.003351  -0.003110
     9  H   -0.000273  -0.009887   0.467422  -0.011904   0.001541   0.003362
    10  H    0.001009  -0.000092  -0.011904   0.475336  -0.011907  -0.000093
    11  H   -0.000272   0.003351   0.001541  -0.011907   0.467408  -0.009894
    12  H   -0.020057  -0.003110   0.003362  -0.000093  -0.009894   0.492890
    13  O   -0.000453   0.001470   0.000109  -0.000010   0.000110   0.001479
    14  C    0.000462   0.000107   0.000012   0.000001   0.000012   0.000114
    15  H   -0.000013  -0.000097  -0.000011   0.000000  -0.000011  -0.000095
    16  H   -0.000013  -0.000097  -0.000011   0.000000  -0.000011  -0.000095
    17  H    0.003612  -0.000260  -0.001309   0.000060  -0.001297  -0.000352
    18  Cl   0.003591   0.003986   0.001269  -0.000014   0.001263   0.004053
    19  H    0.003612  -0.000260  -0.001309   0.000060  -0.001297  -0.000352
    20  Cl   0.003591   0.003986   0.001269  -0.000014   0.001263   0.004053
              13         14         15         16         17         18
     1  C    0.076500  -0.006364  -0.000025  -0.000025   0.006390  -0.045149
     2  C   -0.023721   0.001480  -0.000212  -0.000212  -0.008208   0.024878
     3  C   -0.001648   0.000843  -0.000110  -0.000110  -0.011842   0.015338
     4  C   -0.002295  -0.000158   0.000171   0.000171   0.028068  -0.030276
     5  C   -0.001655   0.000838  -0.000111  -0.000111  -0.011807   0.015326
     6  C   -0.023944   0.001429  -0.000213  -0.000213  -0.008856   0.025620
     7  F   -0.000453   0.000462  -0.000013  -0.000013   0.003612   0.003591
     8  H    0.001470   0.000107  -0.000097  -0.000097  -0.000260   0.003986
     9  H    0.000109   0.000012  -0.000011  -0.000011  -0.001309   0.001269
    10  H   -0.000010   0.000001   0.000000   0.000000   0.000060  -0.000014
    11  H    0.000110   0.000012  -0.000011  -0.000011  -0.001297   0.001263
    12  H    0.001479   0.000114  -0.000095  -0.000095  -0.000352   0.004053
    13  O    8.224227   0.252189  -0.088826  -0.088826   0.004748  -0.004412
    14  C    0.252189   4.820759   0.415532   0.415532  -0.000419  -0.002938
    15  H   -0.088826   0.415532   0.666462  -0.119784  -0.001848   0.003699
    16  H   -0.088826   0.415532  -0.119784   0.666462   0.002502  -0.001474
    17  H    0.004748  -0.000419  -0.001848   0.002502   0.777495   0.094926
    18  Cl  -0.004412  -0.002938   0.003699  -0.001474   0.094926  17.004738
    19  H    0.004748  -0.000419   0.002502  -0.001848  -0.003083   0.002074
    20  Cl  -0.004412  -0.002938  -0.001474   0.003699   0.002074  -0.001224
              19         20
     1  C    0.006390  -0.045149
     2  C   -0.008208   0.024878
     3  C   -0.011842   0.015338
     4  C    0.028068  -0.030276
     5  C   -0.011807   0.015326
     6  C   -0.008856   0.025620
     7  F    0.003612   0.003591
     8  H   -0.000260   0.003986
     9  H   -0.001309   0.001269
    10  H    0.000060  -0.000014
    11  H   -0.001297   0.001263
    12  H   -0.000352   0.004053
    13  O    0.004748  -0.004412
    14  C   -0.000419  -0.002938
    15  H    0.002502  -0.001474
    16  H   -0.001848   0.003699
    17  H   -0.003083   0.002074
    18  Cl   0.002074  -0.001224
    19  H    0.777495   0.094926
    20  Cl   0.094926  17.004738
 Mulliken charges:
               1
     1  C   -0.448399
     2  C    0.062106
     3  C   -0.139836
     4  C   -0.276841
     5  C   -0.139386
     6  C    0.064138
     7  F   -0.192742
     8  H    0.197759
     9  H    0.219278
    10  H    0.181209
    11  H    0.219287
    12  H    0.197686
    13  O   -0.325377
    14  C    0.103924
    15  H    0.124465
    16  H    0.124465
    17  H    0.129405
    18  Cl  -0.115272
    19  H    0.129405
    20  Cl  -0.115272
 Sum of Mulliken charges =  -0.00000
 Mulliken charges with hydrogens summed into heavy atoms:
               1
     1  C   -0.448399
     2  C    0.259865
     3  C    0.079442
     4  C   -0.095632
     5  C    0.079900
     6  C    0.261824
     7  F   -0.192742
    13  O   -0.325377
    14  C    0.352854
    18  Cl   0.014133
    20  Cl   0.014133
 Electronic spatial extent (au):  <R**2>=           3462.7866
 Charge=             -0.0000 electrons
 Dipole moment (field-independent basis, Debye):
    X=              0.0085    Y=              0.7943    Z=              0.0000  Tot=              0.7943
 Quadrupole moment (field-independent basis, Debye-Ang):
   XX=            -72.3024   YY=            -45.4762   ZZ=            -89.7354
   XY=              0.0513   XZ=              0.0000   YZ=              0.0000
 Traceless Quadrupole moment (field-independent basis, Debye-Ang):
   XX=             -3.1311   YY=             23.6951   ZZ=            -20.5640
   XY=              0.0513   XZ=              0.0000   YZ=              0.0000
 Octapole moment (field-independent basis, Debye-Ang**2):
  XXX=             -0.0039  YYY=            132.5118  ZZZ=             -0.0000  XYY=              0.2500
  XXY=             -2.2716  XXZ=              0.0000  XZZ=              0.0205  YZZ=             10.9463
  YYZ=             -0.0000  XYZ=             -0.0000
 Hexadecapole moment (field-independent basis, Debye-Ang**3):
 XXXX=           -268.1029 YYYY=          -1610.6100 ZZZZ=          -1689.0042 XXXY=             -0.9561
 XXXZ=             -0.0000 YYYX=              0.3019 YYYZ=              0.0000 ZZZX=             -0.0000
 ZZZY=              0.0000 XXYY=           -435.2074 XXZZ=           -338.8663 YYZZ=           -718.8751
 XXYZ=              0.0000 YYXZ=             -0.0000 ZZXY=             -0.3113
 N-N= 7.448802280448D+02 E-N=-4.729060338996D+03  KE= 1.368748282773D+03
 Symmetry A'   KE= 8.879626101764D+02
 Symmetry A"   KE= 4.807856725968D+02
 D1PCM: PCM CHGder 1st derivatives, ID1Alg=3 FixD1E=F DoIter=F DoCFld=F I1PDM=0.
 Calling FoFJK, ICntrl=      2127 FMM=F ISym2X=1 I1Cent= 0 IOpClX= 0 NMat=1 NMatS=1 NMatT=0.
 ***** Axes restored to original set *****
 -------------------------------------------------------------------
 Center     Atomic                   Forces (Hartrees/Bohr)
 Number     Number              X              Y              Z
 -------------------------------------------------------------------
      1        6          -0.086389106   -0.000000000   -0.049874280
      2        6          -0.054056797   -0.000000000    0.014947704
      3        6           0.002671990   -0.000000000    0.037593662
      4        6           0.039300343    0.000000000    0.022689955
      5        6           0.033892837    0.000000000   -0.016482586
      6        6          -0.014084286    0.000000000   -0.054289157
      7        9           0.022216110   -0.000000000    0.012828606
      8        1          -0.065643231   -0.000000000    0.036047562
      9        1          -0.001718057   -0.000000000    0.073776265
     10        1           0.064272812    0.000000000    0.037107924
     11        1           0.063033095   -0.000000000   -0.038376015
     12        1          -0.001603551    0.000000000   -0.074872463
     13        8           0.016934219    0.000000000    0.009776311
     14        6           0.059980826    0.000000000    0.034956685
     15        1          -0.039100103    0.071342299   -0.022738956
     16        1          -0.039100103   -0.071342299   -0.022738956
     17        1          -0.116495754   -0.759609946   -0.067259352
     18       17           0.116192255    0.758611172    0.067083222
     19        1          -0.116495754    0.759609946   -0.067259352
     20       17           0.116192255   -0.758611172    0.067083222
 -------------------------------------------------------------------
 Cartesian Forces:  Max     0.759609946 RMS     0.201910793
 -----------------------------------------------------------------------------------------------
                       Internal Coordinate Forces (Hartree/Bohr or radian)
  Cent   Atom   N1       Length/X         N2         Alpha/Y        N3         Beta/Z          J
 -----------------------------------------------------------------------------------------------
      1  C 
      2  C        1   0.037075(     1)
      3  C        2   0.153383(     2)      1   0.160781(    20)
      4  C        3   0.222162(     3)      2   0.414789(    21)      1   0.000000(    38)     0
      5  C        4   0.185088(     4)      3   0.451850(    22)      2   0.000000(    39)     0
      6  C        5   0.079235(     5)      4   0.253792(    23)      3   0.000000(    40)     0
      7  F        1  -0.023467(     6)      2   0.000009(    24)      3   0.000000(    41)     0
      8  H        2   0.074872(     7)      3   0.003030(    25)      4  -0.000000(    42)     0
      9  H        3   0.073776(     8)      4   0.003247(    26)      5  -0.000000(    43)     0
     10  H        4   0.074216(     9)      5  -0.000000(    27)      6   0.000000(    44)     0
     11  H        5   0.073776(    10)      6  -0.003247(    28)      1  -0.000000(    45)     0
     12  H        6   0.074872(    11)      1  -0.003030(    29)      2   0.000000(    46)     0
     13  O        7   0.001485(    12)      1  -0.000001(    30)      3  -0.000000(    47)     0
     14  C       13   0.021039(    13)      1   0.000104(    31)      2  -0.000000(    48)     0
     15  H       14   0.084400(    14)      1   0.006615(    32)      2   0.000118(    49)     0
     16  H       14   0.084400(    15)      1   0.006615(    33)      2  -0.000118(    50)     0
     17  H        7  -0.000923(    16)      1   0.001580(    34)      2   0.000004(    51)     0
     18  Cl      17   0.770384(    17)      7  -0.000676(    35)      1   0.000000(    52)     0
     19  H        7  -0.000923(    18)      1   0.001580(    36)      2  -0.000004(    53)     0
     20  Cl      19   0.770384(    19)      7  -0.000676(    37)      1  -0.000000(    54)     0
 -----------------------------------------------------------------------------------------------
 Internal  Forces:  Max     0.770384028 RMS     0.183143242

 GradGradGradGradGradGradGradGradGradGradGradGradGradGradGradGradGradGrad
 Berny optimization.
 Search for a local minimum.
 Step number   1 out of a maximum of   29
 All quantities printed in internal units (Hartrees-Bohrs-Radians)
 Second derivative matrix not updated -- first step.
 The second derivative matrix:
                          d1        d2        d3        d4        d5
           d1           0.95300
           d2          -0.05489   0.95300
           d3          -0.33597   0.33597   1.34386
           d4          -0.28107   0.05489   0.33597   0.95300
           d5           0.05489  -0.28107  -0.33597  -0.05489   0.95300
           d6           0.00000   0.00000   0.00000  -0.00000  -0.00000
           d7           0.00000   0.00000  -0.00000  -0.00000  -0.00000
           d8          -0.00000  -0.00000   0.00000   0.00000   0.00000
           d9           0.00000   0.00000   0.00000  -0.00000  -0.00000
           d10         -0.00000  -0.00000  -0.00000   0.00000   0.00000
           d11          0.00000  -0.00000  -0.00000  -0.00000  -0.00000
           d12          0.00000   0.00000   0.00000  -0.00000  -0.00000
           d13          0.00000   0.00000   0.00000  -0.00000  -0.00000
           d14         -0.00000  -0.00000   0.00000   0.00000   0.00000
           d15          0.00000   0.00000   0.00000  -0.00000  -0.00000
           d16         -0.00000  -0.00000  -0.00000   0.00000   0.00000
           d17         -0.00000  -0.00000   0.00000   0.00000   0.00000
           d18         -0.00000  -0.00000  -0.00000   0.00000   0.00000
           d19         -0.00000  -0.00000   0.00000   0.00000   0.00000
                          d6        d7        d8        d9        d10
           d6           0.45621
           d7          -0.00000   0.47688
           d8          -0.00000   0.00000   0.47688
           d9           0.00000  -0.00000   0.00000   0.47688
           d10          0.00000  -0.00000  -0.00000   0.00000   0.47688
           d11          0.00000  -0.00000   0.00000   0.00000   0.00000
           d12         -0.00000   0.00000  -0.00000   0.00000   0.00000
           d13         -0.00000   0.00000  -0.00000   0.00000   0.00000
           d14          0.00000   0.00000   0.00000  -0.00000  -0.00000
           d15         -0.00000  -0.00000  -0.00000   0.00000   0.00000
           d16         -0.00000  -0.00000   0.00000  -0.00000  -0.00000
           d17          0.00000   0.00000   0.00000  -0.00000  -0.00000
           d18          0.00000   0.00000   0.00000  -0.00000  -0.00000
           d19          0.00000   0.00000   0.00000  -0.00000  -0.00000
                          d11       d12       d13       d14       d15
           d11          0.47688
           d12          0.00000   0.02330
           d13          0.00000  -0.00000   1.04823
           d14         -0.00000   0.00000   0.00000   0.47688
           d15          0.00000   0.00000  -0.00000   0.00000   0.47688
           d16         -0.00000   0.00000   0.00000   0.00000   0.00000
           d17         -0.00000  -0.00000  -0.00000   0.00000  -0.00000
           d18          0.00000  -0.00000   0.00000   0.00000  -0.00000
           d19          0.00000   0.00000   0.00000  -0.00000   0.00000
                          d16       d17       d18       d19
           d16          0.02721
           d17          0.00000   1.53817
           d18          0.00000   0.00000   0.02721
           d19          0.00000  -0.00000  -0.00000   1.53817
 ITU=  0
     Eigenvalues ---    0.02330   0.02721   0.02721   0.45621   0.47688
     Eigenvalues ---    0.47688   0.47688   0.47688   0.47688   0.47688
     Eigenvalues ---    0.47688   0.67193   0.67193   0.67193   1.04823
     Eigenvalues ---    1.12429   1.53817   1.53817   2.01579
 RFO step:  Lambda=-6.46794371D-01 EMin= 2.33007068D-02
 Linear search not attempted -- first point.
 Maximum step size (   0.300) exceeded in Quadratic search.
    -- Step size scaled by   0.527
 Variable       Old X    -DE/DX   Delta X   Delta X   Delta X     New X
                                 (Linear)    (Quad)   (Total)
    d1        2.45664   0.03707   0.00000   0.03351   0.03351   2.49015
    d2        2.45664   0.15338   0.00000   0.04638   0.04638   2.50303
    d3        2.45664   0.22216   0.00000   0.05518   0.05518   2.51183
    d4        2.45664   0.18509   0.00000   0.05529   0.05529   2.51193
    d5        2.45664   0.07924   0.00000   0.04659   0.04659   2.50323
    d6        2.64562  -0.02347   0.00000  -0.01121  -0.01121   2.63440
    d7        1.88973   0.07487   0.00000   0.03512   0.03512   1.92485
    d8        1.88973   0.07378   0.00000   0.03461   0.03461   1.92433
    d9        1.88973   0.07422   0.00000   0.03481   0.03481   1.92454
   d10        1.88973   0.07378   0.00000   0.03461   0.03461   1.92433
   d11        1.88973   0.07487   0.00000   0.03512   0.03512   1.92485
   d12        5.29123   0.00149   0.00000   0.00117   0.00117   5.29240
   d13        2.26767   0.02104   0.00000   0.00654   0.00654   2.27421
   d14        1.88973   0.08440   0.00000   0.03959   0.03959   1.92932
   d15        1.88973   0.08440   0.00000   0.03959   0.03959   1.92932
   d16        4.34637  -0.00092   0.00000  -0.00072  -0.00072   4.34565
   d17        1.70075   0.77038   0.00000   0.18584   0.18584   1.88659
   d18        4.34637  -0.00092   0.00000  -0.00072  -0.00072   4.34565
   d19        1.70075   0.77038   0.00000   0.18584   0.18584   1.88659
         Item               Value     Threshold  Converged?
 Maximum Force            0.770384     0.000450     NO 
 RMS     Force            0.266026     0.000300     NO 
 Maximum Displacement     0.185841     0.001800     NO 
 RMS     Displacement     0.068825     0.001200     NO 
 Predicted change in Energy=-2.801748D-01
 GradGradGradGradGradGradGradGradGradGradGradGradGradGradGradGradGradGrad

 ---------------------------------------------------------------------------------------------------
                            Z-MATRIX (ANGSTROMS AND DEGREES)
   CD    Cent   Atom    N1       Length/X        N2       Alpha/Y        N3        Beta/Z          J
 ---------------------------------------------------------------------------------------------------
      1      1  C 
      2      2  C        1   1.317733(     1)
      3      3  C        2   1.324546(     2)      1  120.000(    20)
      4      4  C        3   1.329202(     3)      2  120.000(    21)      1    0.000(    38)      0
      5      5  C        4   1.329256(     4)      3  120.000(    22)      2    0.000(    39)      0
      6      6  C        5   1.324655(     5)      4  120.000(    23)      3    0.000(    40)      0
      7      7  F        1   1.394066(     6)      2  120.000(    24)      3  180.000(    41)      0
      8      8  H        2   1.018585(     7)      3  120.000(    25)      4  180.000(    42)      0
      9      9  H        3   1.018313(     8)      4  120.000(    26)      5  180.000(    43)      0
     10     10  H        4   1.018422(     9)      5  120.000(    27)      6  180.000(    44)      0
     11     11  H        5   1.018313(    10)      6  120.000(    28)      1  180.000(    45)      0
     12     12  H        6   1.018585(    11)      1  120.000(    29)      2  180.000(    46)      0
     13     13  O        7   2.800618(    12)      1  179.900(    30)      3  180.000(    47)      0
     14     14  C       13   1.203462(    13)      1  179.900(    31)      2  180.000(    48)      0
     15     15  H       14   1.020950(    14)      1  120.000(    32)      2   90.000(    49)      0
     16     16  H       14   1.020950(    15)      1  120.000(    33)      2  -90.000(    50)      0
     17     17  H        7   2.299618(    16)      1  100.000(    34)      2   90.000(    51)      0
     18     18  Cl      17   0.998343(    17)      7  160.000(    35)      1    0.000(    52)      0
     19     19  H        7   2.299618(    18)      1  100.000(    36)      2  -90.000(    53)      0
     20     20  Cl      19   0.998343(    19)      7  160.000(    37)      1    0.000(    54)      0
 ---------------------------------------------------------------------------------------------------
                         Z-Matrix orientation:                         
 ---------------------------------------------------------------------
 Center     Atomic      Atomic             Coordinates (Angstroms)
 Number     Number       Type             X           Y           Z
 ---------------------------------------------------------------------
      1          6           0        0.000000    0.000000    0.000000
      2          6           0        0.000000    0.000000    1.317733
      3          6           0        1.147090    0.000000    1.980006
      4          6           0        2.298213    0.000000    1.315405
      5          6           0        2.298213    0.000000   -0.013852
      6          6           0        1.151028    0.000000   -0.676179
      7          9           0       -1.207296   -0.000000   -0.697033
      8          1           0       -0.882120   -0.000000    1.827025
      9          1           0        1.147090   -0.000000    2.998318
     10          1           0        3.180192   -0.000000    1.824616
     11          1           0        3.180097   -0.000000   -0.523008
     12          1           0        1.143341   -0.000000   -1.694735
     13          8           0       -3.630255   -0.000000   -2.101573
     14          6           0       -4.670728   -0.000000   -2.706335
     15          1           0       -5.112415    0.884168   -2.962259
     16          1           0       -5.112415   -0.884168   -2.962259
     17          1           0       -1.553122    2.264682   -0.896695
     18         17           0       -1.402987    3.247857   -0.810015
     19          1           0       -1.553122   -2.264682   -0.896695
     20         17           0       -1.402987   -3.247857   -0.810015
 ---------------------------------------------------------------------
                    Distance matrix (angstroms):
                    1          2          3          4          5
     1  C    0.000000
     2  C    1.317733   0.000000
     3  C    2.288283   1.324546   0.000000
     4  C    2.648031   2.298214   1.329202   0.000000
     5  C    2.298254   2.656106   2.302292   1.329256   0.000000
     6  C    1.334947   2.302292   2.656188   2.298356   1.324655
     7  F    1.394066   2.348797   3.565063   4.042091   3.571461
     8  H    2.028832   1.018585   2.034969   3.221222   3.674690
     9  H    3.210254   2.034744   1.018313   2.038941   3.224632
    10  H    3.666448   3.220334   2.039031   1.018422   2.039081
    11  H    3.222818   3.674418   3.224623   2.038990   1.018313
    12  H    2.044347   3.222141   3.674742   3.224076   2.039386
    13  O    4.194683   4.987024   6.283495   6.842695   6.285325
    14  C    5.398143   6.165130   7.470529   8.046150   7.470984
    15  H    5.974406   6.725836   8.024285   8.602184   8.024479
    16  H    5.974406   6.725836   8.024285   8.602184   8.024479
    17  H    2.888777   3.527699   4.549212   4.985473   4.554226
    18  Cl   3.629473   4.128470   4.983542   5.363289   4.988119
    19  H    2.888777   3.527699   4.549212   4.985473   4.554226
    20  Cl   3.629473   4.128470   4.983542   5.363289   4.988119
                    6          7          8          9         10
     6  C    0.000000
     7  F    2.358417   0.000000
     8  H    3.224860   2.544918   0.000000
     9  H    3.674500   4.381639   2.342994   0.000000
    10  H    3.220478   5.060510   4.062313   2.347569   0.000000
    11  H    2.034843   4.390844   4.693002   4.066062   2.347624
    12  H    1.018585   2.553606   4.062670   4.693055   4.066275
    13  O    4.989230   2.800618   4.794385   6.987984   7.861116
    14  C    6.165580   4.004080   5.908037   8.148011   9.064572
    15  H    6.725967   4.600321   6.450922   8.688593   9.615782
    16  H    6.725967   4.600321   6.450922   8.688593   9.615782
    17  H    3.534096   2.299618   3.605229   5.252719   5.910886
    18  Cl   4.133943   3.255708   4.215906   5.617373   6.204465
    19  H    3.534096   2.299618   3.605229   5.252719   5.910886
    20  Cl   4.133943   3.255708   4.215906   5.617373   6.204465
                   11         12         13         14         15
    11  H    0.000000
    12  H    2.349749   0.000000
    13  O    6.990906   4.790902   0.000000
    14  C    8.148765   5.901418   1.203462   0.000000
    15  H    8.688928   6.443823   1.928557   1.020950   0.000000
    16  H    8.688928   6.443823   1.928557   1.020950   1.768337
    17  H    5.260398   3.610618   3.300757   4.257118   4.340616
    18  Cl   5.624555   4.220793   4.144566   4.982242   4.896840
    19  H    5.260398   3.610618   3.300757   4.257118   5.181736
    20  Cl   5.624555   4.220793   4.144566   4.982242   5.955304
                   16         17         18         19         20
    16  H    0.000000
    17  H    5.181736   0.000000
    18  Cl   5.955304   0.998343   0.000000
    19  H    4.340616   4.529364   5.515264   0.000000
    20  Cl   4.896840   5.515264   6.495715   0.998343   0.000000
 Stoichiometry    C7H9Cl2FO
 Framework group  CS[SG(C7H5FO),X(H4Cl2)]
 Deg. of freedom    34
 Full point group                 CS      NOp   2
 Largest Abelian subgroup         CS      NOp   2
 Largest concise Abelian subgroup CS      NOp   2
                         Standard orientation:                         
 ---------------------------------------------------------------------
 Center     Atomic      Atomic             Coordinates (Angstroms)
 Number     Number       Type             X           Y           Z
 ---------------------------------------------------------------------
      1          6           0       -0.004434   -0.906270    0.000000
      2          6           0       -1.145624   -1.565136    0.000000
      3          6           0       -1.145624   -2.889682    0.000000
      4          6           0        0.005499   -3.554283    0.000000
      5          6           0        1.156668   -2.889655    0.000000
      6          6           0        1.156668   -1.565000    0.000000
      7          9           0       -0.004434    0.487796   -0.000000
      8          1           0       -2.027744   -1.055844    0.000000
      9          1           0       -2.027509   -3.398838    0.000000
     10          1           0        0.005499   -4.572705    0.000000
     11          1           0        2.038553   -3.398811    0.000000
     12          1           0        2.034920   -1.049065    0.000000
     13          8           0        0.000454    3.288410   -0.000000
     14          6           0        0.003957    4.491867   -0.000000
     15          1           0        0.004750    5.002341    0.884168
     16          1           0        0.004750    5.002341   -0.884168
     17          1           0       -0.004434    0.887120    2.264682
     18         17           0       -0.004434    0.713760    3.247857
     19          1           0       -0.004434    0.887120   -2.264682
     20         17           0       -0.004434    0.713760   -3.247857
 ---------------------------------------------------------------------
 Rotational constants (GHZ):           0.6089526           0.4791732           0.2931283
 Standard basis: 6-311++G(d,p) (5D, 7F)
 There are   228 symmetry adapted cartesian basis functions of A'  symmetry.
 There are   104 symmetry adapted cartesian basis functions of A"  symmetry.
 There are   218 symmetry adapted basis functions of A'  symmetry.
 There are   103 symmetry adapted basis functions of A"  symmetry.
   321 basis functions,   511 primitive gaussians,   332 cartesian basis functions
    51 alpha electrons       51 beta electrons
       nuclear repulsion energy       731.5797781244 Hartrees.
 NAtoms=   20 NActive=   20 NUniq=   17 SFac= 1.38D+00 NAtFMM=   60 NAOKFM=F Big=F
 Integral buffers will be    131072 words long.
 Raffenetti 2 integral format.
 Two-electron integral symmetry is turned on.
 ------------------------------------------------------------------------------
 Polarizable Continuum Model (PCM)
 =================================
 Model                : PCM.
 Atomic radii         : UFF (Universal Force Field).
 Polarization charges : Total charges.
 Charge compensation  : None.
 Solution method      : On-the-fly selection.
 Cavity type          : Scaled VdW (van der Waals Surface) (Alpha=1.100).
 Cavity algorithm     : GePol (No added spheres)
                        Default sphere list used, NSphG=   20.
                        Lebedev-Laikov grids with approx.  5.0 points / Ang**2.
                        Smoothing algorithm: York/Karplus (Gamma=1.0000).
                        Polarization charges: spherical gaussians, with
                                              point-specific exponents (IZeta= 3).
                        Self-potential: point-specific (ISelfS= 7).
                        Self-field    : sphere-specific E.n sum rule (ISelfD= 2).
 1st derivatives      : Analytical E(r).r(x)/FMM algorithm (CHGder, D1EAlg=3).
                        Cavity 1st derivative terms included.
 Solvent              : Water, Eps=  78.355300 Eps(inf)=   1.777849
 ------------------------------------------------------------------------------
 Spheres list:
 ISph  on   Nord     Re0    Alpha      Xe            Ye            Ze
    1   C      1    1.9255  1.100     -0.004434     -0.906270      0.000000
    2   C      2    1.9255  1.100     -1.145624     -1.565136      0.000000
    3   C      3    1.9255  1.100     -1.145624     -2.889682      0.000000
    4   C      4    1.9255  1.100      0.005499     -3.554283      0.000000
    5   C      5    1.9255  1.100      1.156668     -2.889655      0.000000
    6   C      6    1.9255  1.100      1.156668     -1.565000      0.000000
    7   F      7    1.6820  1.100     -0.004434      0.487796     -0.000000
    8   H      8    1.4430  1.100     -2.027744     -1.055844      0.000000
    9   H      9    1.4430  1.100     -2.027509     -3.398838      0.000000
   10   H     10    1.4430  1.100      0.005499     -4.572705      0.000000
   11   H     11    1.4430  1.100      2.038553     -3.398811      0.000000
   12   H     12    1.4430  1.100      2.034920     -1.049065      0.000000
   13   O     13    1.7500  1.100      0.000454      3.288410     -0.000000
   14   C     14    1.9255  1.100      0.003957      4.491867     -0.000000
   15   H     15    1.4430  1.100      0.004750      5.002341      0.884168
   16   H     16    1.4430  1.100      0.004750      5.002341     -0.884168
   17   H     17    1.4430  1.100     -0.004434      0.887120      2.264682
   18  Cl     18    1.9735  1.100     -0.004434      0.713760      3.247857
   19   H     19    1.4430  1.100     -0.004434      0.887120     -2.264682
   20  Cl     20    1.9735  1.100     -0.004434      0.713760     -3.247857
 ------------------------------------------------------------------------------
 One-electron integrals computed using PRISM.
 NBasis=   321 RedAO= T EigKep=  4.46D-06  NBF=   218   103
 NBsUse=   320 1.00D-06 EigRej=  4.63D-07 NBFU=   217   103
 Initial guess from the checkpoint file:  "model_H2b.chk"
 B after Tr=    -0.000000    0.000000    0.000000
         Rot=    1.000000   -0.000000    0.000000   -0.000764 Ang=  -0.09 deg.
 Initial guess orbital symmetries:
       Occupied  (A") (A') (A') (A') (A') (A') (A') (A') (A') (A')
                 (A') (A") (A') (A') (A") (A') (A") (A') (A") (A')
                 (A') (A") (A') (A') (A') (A') (A') (A') (A') (A')
                 (A") (A") (A') (A') (A') (A") (A') (A') (A') (A')
                 (A") (A') (A') (A') (A') (A") (A") (A') (A") (A")
                 (A")
       Virtual   (A') (A') (A') (A') (A") (A') (A") (A") (A') (A')
                 (A") (A') (A") (A') (A") (A') (A') (A") (A') (A')
                 (A") (A") (A') (A') (A') (A') (A') (A') (A") (A')
                 (A') (A") (A") (A') (A") (A') (A') (A') (A') (A")
                 (A') (A') (A') (A") (A') (A") (A') (A') (A') (A")
                 (A') (A') (A") (A') (A') (A") (A') (A') (A') (A')
                 (A') (A') (A") (A') (A') (A') (A') (A') (A') (A')
                 (A") (A") (A') (A') (A") (A') (A') (A') (A') (A')
                 (A") (A") (A') (A') (A") (A') (A") (A') (A') (A")
                 (A") (A') (A") (A') (A') (A") (A') (A") (A') (A')
                 (A") (A') (A') (A') (A') (A') (A") (A') (A') (A')
                 (A') (A") (A') (A") (A') (A') (A') (A") (A') (A')
                 (A') (A') (A") (A") (A') (A') (A') (A") (A') (A")
                 (A") (A") (A") (A') (A") (A") (A') (A') (A') (A')
                 (A') (A") (A') (A') (A") (A') (A') (A') (A') (A")
                 (A") (A') (A") (A") (A') (A') (A') (A") (A") (A')
                 (A') (A") (A') (A") (A') (A') (A') (A") (A') (A')
                 (A") (A") (A') (A') (A") (A') (A') (A') (A") (A')
                 (A') (A") (A") (A') (A') (A") (A') (A') (A") (A")
                 (A') (A") (A') (A') (A") (A') (A') (A') (A') (A")
                 (A') (A') (A') (A') (A") (A') (A') (A') (A") (A")
                 (A') (A") (A") (A") (A') (A') (A') (A") (A') (A')
                 (A') (A') (A') (A") (A') (A") (A') (A') (A') (A')
                 (A') (A") (A') (A") (A") (A') (A') (A') (A') (A')
                 (A') (A') (A') (A') (A') (A") (A') (A") (A') (A')
                 (A') (A") (A') (A') (A') (A') (A') (A') (A') (A")
                 (A') (A") (A') (A") (A') (A') (A') (A') (A")
 ExpMin= 3.60D-02 ExpMax= 1.06D+05 ExpMxC= 3.62D+03 IAcc=3 IRadAn=         5 AccDes= 0.00D+00
 Harris functional with IExCor= 1009 and IRadAn=       5 diagonalized for initial guess.
 HarFok:  IExCor= 1009 AccDes= 0.00D+00 IRadAn=         5 IDoV= 1 UseB2=F ITyADJ=14
 ICtDFT=  3500011 ScaDFX=  1.000000  1.000000  1.000000  1.000000
 FoFCou: FMM=F IPFlag=           0 FMFlag=      100000 FMFlg1=           0
         NFxFlg=           0 DoJE=T BraDBF=F KetDBF=T FulRan=T
         wScrn=  0.000000 ICntrl=       500 IOpCl=  0 I1Cent=   200000004 NGrid=           0
         NMat0=    1 NMatS0=      1 NMatT0=    0 NMatD0=    1 NMtDS0=    0 NMtDT0=    0
 Petite list used in FoFCou.
 Requested convergence on RMS density matrix=1.00D-08 within 128 cycles.
 Requested convergence on MAX density matrix=1.00D-06.
 Requested convergence on             energy=1.00D-06.
 No special actions if energy rises.
 Inv3:  Mode=1 IEnd=    13091763.
 Iteration    1 A*A^-1 deviation from unit magnitude is 6.11D-15 for   2085.
 Iteration    1 A*A^-1 deviation from orthogonality  is 2.25D-15 for   2087   1969.
 Iteration    1 A^-1*A deviation from unit magnitude is 5.88D-15 for   2085.
 Iteration    1 A^-1*A deviation from orthogonality  is 2.20D-15 for   2086   1894.
 Error on total polarization charges =  0.01614
 SCF Done:  E(RM062X) =  -1367.32138984     A.U. after   13 cycles
            NFock= 13  Conv=0.29D-08     -V/T= 2.0001
 D1PCM: PCM CHGder 1st derivatives, ID1Alg=3 FixD1E=F DoIter=F DoCFld=F I1PDM=0.
 Calling FoFJK, ICntrl=      2127 FMM=F ISym2X=1 I1Cent= 0 IOpClX= 0 NMat=1 NMatS=1 NMatT=0.
 ***** Axes restored to original set *****
 -------------------------------------------------------------------
 Center     Atomic                   Forces (Hartrees/Bohr)
 Number     Number              X              Y              Z
 -------------------------------------------------------------------
      1        6          -0.048230888    0.000000000   -0.046698924
      2        6          -0.037473862   -0.000000000    0.013373885
      3        6           0.009479842    0.000000000    0.017589102
      4        6           0.018316553   -0.000000000    0.012556069
      5        6           0.017472566    0.000000000   -0.004286479
      6        6          -0.020413728   -0.000000000   -0.028217026
      7        9           0.020704379   -0.000000000    0.012148452
      8        1          -0.048628843   -0.000000000    0.026265418
      9        1          -0.001404460    0.000000000    0.054395505
     10        1           0.047341968   -0.000000000    0.027351909
     11        1           0.046458247    0.000000000   -0.028479241
     12        1          -0.001883512   -0.000000000   -0.054982940
     13        8           0.009526999    0.000000000    0.005472383
     14        6           0.048999974    0.000000000    0.028600852
     15        1          -0.029859511    0.052367718   -0.017382119
     16        1          -0.029859511   -0.052367718   -0.017382119
     17        1          -0.062886079   -0.408316773   -0.036308240
     18       17           0.062612972    0.406922259    0.036145877
     19        1          -0.062886079    0.408316773   -0.036308240
     20       17           0.062612972   -0.406922259    0.036145877
 -------------------------------------------------------------------
 Cartesian Forces:  Max     0.408316773 RMS     0.109614828
 -----------------------------------------------------------------------------------------------
                       Internal Coordinate Forces (Hartree/Bohr or radian)
  Cent   Atom   N1       Length/X         N2         Alpha/Y        N3         Beta/Z          J
 -----------------------------------------------------------------------------------------------
      1  C 
      2  C        1   0.034600(     1)
      3  C        2   0.096900(     2)      1   0.071878(    20)
      4  C        3   0.130938(     3)      2   0.223458(    21)      1  -0.000000(    38)     0
      5  C        4   0.116932(     4)      3   0.254269(    22)      2  -0.000000(    39)     0
      6  C        5   0.061885(     5)      4   0.151082(    23)      3  -0.000000(    40)     0
      7  F        1  -0.021992(     6)      2  -0.000409(    24)      3  -0.000000(    41)     0
      8  H        2   0.055247(     7)      3   0.003018(    25)      4  -0.000000(    42)     0
      9  H        3   0.054396(     8)      4   0.002703(    26)      5   0.000000(    43)     0
     10  H        4   0.054675(     9)      5   0.000032(    27)      6  -0.000000(    44)     0
     11  H        5   0.054474(    10)      6  -0.002761(    28)      1   0.000000(    45)     0
     12  H        6   0.054996(    11)      1  -0.002827(    29)      2  -0.000000(    46)     0
     13  O        7   0.001378(    12)      1  -0.000002(    30)      3  -0.000000(    47)     0
     14  C       13   0.012365(    13)      1   0.000102(    31)      2  -0.000000(    48)     0
     15  H       14   0.062627(    14)      1   0.007211(    32)      2   0.000117(    49)     0
     16  H       14   0.062627(    15)      1   0.007211(    33)      2  -0.000117(    50)     0
     17  H        7  -0.001318(    16)      1   0.001398(    34)      2   0.000023(    51)     0
     18  Cl      17   0.413295(    17)      7  -0.001014(    35)      1   0.000002(    52)     0
     19  H        7  -0.001318(    18)      1   0.001398(    36)      2  -0.000023(    53)     0
     20  Cl      19   0.413295(    19)      7  -0.001014(    37)      1  -0.000002(    54)     0
 -----------------------------------------------------------------------------------------------
 Internal  Forces:  Max     0.413294500 RMS     0.101201843

 GradGradGradGradGradGradGradGradGradGradGradGradGradGradGradGradGradGrad
 Berny optimization.
 Search for a local minimum.
 Step number   2 out of a maximum of   29
 All quantities printed in internal units (Hartrees-Bohrs-Radians)
 Update second derivatives using D2CorN and points    1    2
 DE= -2.60D-01 DEPred=-2.80D-01 R= 9.28D-01
 TightC=F SS=  1.41D+00  RLast= 3.00D-01 DXNew= 5.0454D-01 9.0000D-01
 Trust test= 9.28D-01 RLast= 3.00D-01 DXMaxT set to 5.05D-01
 The second derivative matrix:
                          d1        d2        d3        d4        d5
           d1           0.95472
           d2          -0.05266   0.95591
           d3          -0.33273   0.34022   1.34988
           d4          -0.27847   0.05826   0.34093   0.95691
           d5           0.05715  -0.27814  -0.33167  -0.05149   0.95596
           d6           0.00039   0.00059   0.00050   0.00072   0.00059
           d7           0.00143   0.00184   0.00280   0.00212   0.00186
           d8           0.00142   0.00183   0.00277   0.00211   0.00184
           d9           0.00144   0.00185   0.00280   0.00213   0.00187
           d10          0.00141   0.00181   0.00275   0.00208   0.00182
           d11          0.00148   0.00191   0.00287   0.00220   0.00193
           d12          0.00004   0.00006   0.00009   0.00007   0.00006
           d13          0.00051   0.00067   0.00091   0.00079   0.00068
           d14          0.00155   0.00199   0.00305   0.00229   0.00201
           d15          0.00155   0.00199   0.00305   0.00229   0.00201
           d16          0.00006   0.00008   0.00009   0.00010   0.00008
           d17          0.01802   0.02418   0.03198   0.02844   0.02435
           d18          0.00006   0.00008   0.00009   0.00010   0.00008
           d19          0.01802   0.02418   0.03198   0.02844   0.02435
                          d6        d7        d8        d9        d10
           d6           0.45575
           d7           0.00053   0.47801
           d8           0.00052   0.00111   0.47799
           d9           0.00052   0.00113   0.00112   0.47802
           d10          0.00053   0.00110   0.00109   0.00111   0.47796
           d11          0.00052   0.00117   0.00116   0.00118   0.00115
           d12          0.00002   0.00003   0.00003   0.00003   0.00003
           d13          0.00002   0.00046   0.00045   0.00046   0.00045
           d14          0.00062   0.00120   0.00119   0.00121   0.00117
           d15          0.00062   0.00120   0.00119   0.00121   0.00117
           d16         -0.00004   0.00007   0.00007   0.00007   0.00007
           d17         -0.00068   0.01687   0.01667   0.01681   0.01659
           d18         -0.00004   0.00007   0.00007   0.00007   0.00007
           d19         -0.00068   0.01687   0.01667   0.01681   0.01659
                          d11       d12       d13       d14       d15
           d11          0.47810
           d12          0.00004   0.02330
           d13          0.00047   0.00001   1.04836
           d14          0.00125   0.00004   0.00050   0.47816
           d15          0.00125   0.00004   0.00050   0.00127   0.47816
           d16          0.00007   0.00000   0.00001   0.00008   0.00008
           d17          0.01713   0.00055   0.00446   0.01865   0.01865
           d18          0.00007   0.00000   0.00001   0.00008   0.00008
           d19          0.01713   0.00055   0.00446   0.01865   0.01865
                          d16       d17       d18       d19
           d16          0.02721
           d17          0.00014   1.68527
           d18         -0.00000   0.00014   0.02721
           d19          0.00014   0.14709   0.00014   1.68527
 ITU=  1  0
 Linear search step of   0.600 exceeds DXMaxT=   0.505 but not scaled.
 Quartic linear search produced a step of  2.00000.
 Variable       Old X    -DE/DX   Delta X   Delta X   Delta X     New X
                                 (Linear)    (Quad)   (Total)
    d1        2.49015   0.03460   0.06702   0.00000   0.06702   2.55717
    d2        2.50303   0.09690   0.09277   0.00000   0.09277   2.59580
    d3        2.51183   0.13094   0.11037   0.00000   0.11037   2.62219
    d4        2.51193   0.11693   0.11057   0.00000   0.11057   2.62250
    d5        2.50323   0.06188   0.09318   0.00000   0.09318   2.59642
    d6        2.63440  -0.02199  -0.02243   0.00000  -0.02243   2.61197
    d7        1.92485   0.05525   0.07024   0.00000   0.07024   1.99509
    d8        1.92433   0.05440   0.06921   0.00000   0.06921   1.99354
    d9        1.92454   0.05468   0.06962   0.00000   0.06962   1.99416
   d10        1.92433   0.05447   0.06921   0.00000   0.06921   1.99354
   d11        1.92485   0.05500   0.07024   0.00000   0.07024   1.99509
   d12        5.29240   0.00138   0.00234   0.00000   0.00234   5.29474
   d13        2.27421   0.01236   0.01308   0.00000   0.01308   2.28730
   d14        1.92932   0.06263   0.07918   0.00000   0.07918   2.00849
   d15        1.92932   0.06263   0.07918   0.00000   0.07918   2.00849
   d16        4.34565  -0.00132  -0.00144   0.00000  -0.00144   4.34421
   d17        1.88659   0.41329   0.37168   0.00000   0.37168   2.25828
   d18        4.34565  -0.00132  -0.00144   0.00000  -0.00144   4.34421
   d19        1.88659   0.41329   0.37168   0.00000   0.37168   2.25828
         Item               Value     Threshold  Converged?
 Maximum Force            0.413295     0.000450     NO 
 RMS     Force            0.146958     0.000300     NO 
 Maximum Displacement     0.371681     0.001800     NO 
 RMS     Displacement     0.137649     0.001200     NO 
 Predicted change in Energy=-8.086784D-02
 GradGradGradGradGradGradGradGradGradGradGradGradGradGradGradGradGradGrad

 ---------------------------------------------------------------------------------------------------
                            Z-MATRIX (ANGSTROMS AND DEGREES)
   CD    Cent   Atom    N1       Length/X        N2       Alpha/Y        N3        Beta/Z          J
 ---------------------------------------------------------------------------------------------------
      1      1  C 
      2      2  C        1   1.353198(     1)
      3      3  C        2   1.373637(     2)      1  120.000(    20)
      4      4  C        3   1.387605(     3)      2  120.000(    21)      1    0.000(    38)      0
      5      5  C        4   1.387769(     4)      3  120.000(    22)      2    0.000(    39)      0
      6      6  C        5   1.373964(     5)      4  120.000(    23)      3    0.000(    40)      0
      7      7  F        1   1.382198(     6)      2  120.000(    24)      3  180.000(    41)      0
      8      8  H        2   1.055755(     7)      3  120.000(    25)      4  180.000(    42)      0
      9      9  H        3   1.054938(     8)      4  120.000(    26)      5  180.000(    43)      0
[...]
    17  H    5.240485   3.466104   3.290919   4.305406   4.480364
    18  Cl   5.684970   4.241460   4.333981   5.198919   5.137512
    19  H    5.240485   3.466104   3.290919   4.305406   5.271302
    20  Cl   5.684970   4.241460   4.333981   5.198919   6.240438
                   16         17         18         19         20
    16  H    0.000000
    17  H    5.271302   0.000000
    18  Cl   6.240438   1.288102   0.000000
    19  H    4.480364   4.046328   5.319566   0.000000
    20  Cl   5.137512   5.319566   6.583394   1.288102   0.000000
 Stoichiometry    C7H9Cl2FO
 Framework group  CS[SG(C7H5FO),X(H4Cl2)]
 Deg. of freedom    34
 Full point group                 CS      NOp   2
 Largest Abelian subgroup         CS      NOp   2
 Largest concise Abelian subgroup CS      NOp   2
                         Standard orientation:                         
 ---------------------------------------------------------------------
 Center     Atomic      Atomic             Coordinates (Angstroms)
 Number     Number       Type             X           Y           Z
 ---------------------------------------------------------------------
      1          6           0       -0.004836   -0.856898    0.000000
      2          6           0       -1.198134   -1.545849    0.000000
      3          6           0       -1.198134   -2.928476    0.000000
      4          6           0        0.003604   -3.622299   -0.000000
      5          6           0        1.212357   -2.924425   -0.000000
      6          6           0        1.212357   -1.524423   -0.000000
      7          9           0       -0.004836    0.505036    0.000000
      8          1           0       -2.136997   -1.003796    0.000000
      9          1           0       -2.135682   -3.469769    0.000000
     10          1           0        0.003604   -4.705261   -0.000000
     11          1           0        2.149839   -3.465680   -0.000000
     12          1           0        2.138412   -0.962278   -0.000000
     13          8           0        0.000317    3.457334   -0.000000
     14          6           0        0.003859    4.662202   -0.000000
     15          1           0        0.004726    5.212463    0.953082
     16          1           0        0.004726    5.212463   -0.953082
     17          1           0       -0.004836    0.861774    2.023164
     18         17           0       -0.004836    0.638098    3.291697
     19          1           0       -0.004836    0.861774   -2.023164
     20         17           0       -0.004836    0.638098   -3.291697
 ---------------------------------------------------------------------
 Rotational constants (GHZ):           0.5903466           0.4566879           0.2829200

 **********************************************************************

            Population analysis using the SCF Density.

 **********************************************************************

 Orbital symmetries:
       Occupied  (A") (A') (A') (A') (A') (A') (A') (A') (A') (A')
                 (A') (A") (A') (A') (A") (A') (A") (A') (A") (A')
                 (A') (A') (A") (A') (A') (A') (A') (A') (A') (A')
                 (A") (A') (A') (A") (A') (A') (A') (A") (A') (A')
                 (A') (A") (A') (A') (A') (A") (A") (A') (A") (A")
                 (A")
       Virtual   (A') (A') (A") (A") (A') (A') (A") (A') (A') (A')
                 (A") (A') (A") (A') (A") (A') (A') (A') (A") (A')
                 (A') (A") (A") (A") (A') (A') (A') (A') (A') (A')
                 (A") (A') (A") (A") (A') (A') (A') (A") (A') (A')
                 (A') (A") (A') (A') (A') (A") (A') (A") (A') (A')
                 (A') (A') (A") (A') (A') (A') (A') (A") (A') (A')
                 (A') (A') (A') (A') (A') (A") (A') (A') (A') (A')
                 (A") (A") (A') (A') (A') (A") (A') (A') (A') (A')
                 (A") (A') (A') (A") (A') (A') (A') (A") (A") (A')
                 (A') (A") (A") (A") (A') (A") (A') (A") (A') (A')
                 (A') (A') (A') (A") (A') (A') (A') (A') (A') (A")
                 (A') (A') (A') (A') (A") (A') (A") (A') (A') (A")
                 (A') (A") (A') (A') (A") (A') (A") (A') (A") (A")
                 (A') (A') (A") (A") (A") (A') (A") (A') (A') (A')
                 (A") (A') (A') (A') (A") (A') (A") (A') (A') (A")
                 (A") (A') (A") (A') (A') (A') (A') (A") (A') (A")
                 (A") (A') (A') (A") (A') (A') (A') (A") (A') (A")
                 (A") (A') (A') (A') (A") (A') (A') (A") (A') (A')
                 (A') (A') (A") (A") (A') (A") (A') (A") (A') (A")
                 (A') (A") (A') (A") (A') (A') (A") (A') (A') (A')
                 (A") (A') (A') (A') (A') (A') (A') (A') (A") (A')
                 (A') (A") (A') (A") (A') (A") (A") (A") (A') (A')
                 (A") (A') (A') (A') (A') (A') (A') (A') (A') (A")
                 (A') (A") (A') (A") (A') (A') (A') (A") (A') (A')
                 (A') (A') (A') (A') (A') (A") (A') (A") (A') (A')
                 (A') (A") (A') (A') (A') (A') (A') (A') (A') (A")
                 (A') (A") (A') (A") (A') (A') (A') (A') (A")
 The electronic state is 1-A'.
 Alpha  occ. eigenvalues -- -102.67880-102.67880 -25.28348 -19.64558 -10.64459
 Alpha  occ. eigenvalues --  -10.63867 -10.56453 -10.56301 -10.56172 -10.56027
 Alpha  occ. eigenvalues --  -10.55530  -9.82201  -9.82201  -7.54683  -7.54683
 Alpha  occ. eigenvalues --   -7.54069  -7.54069  -7.54067  -7.54067  -1.39900
 Alpha  occ. eigenvalues --   -1.19231  -0.98469  -0.94145  -0.94102  -0.86725
 Alpha  occ. eigenvalues --   -0.86345  -0.72363  -0.72265  -0.71824  -0.64606
 Alpha  occ. eigenvalues --   -0.61176  -0.59306  -0.58496  -0.58283  -0.53951
 Alpha  occ. eigenvalues --   -0.53310  -0.52657  -0.52108  -0.51049  -0.50063
 Alpha  occ. eigenvalues --   -0.47758  -0.45390  -0.44213  -0.42067  -0.39977
 Alpha  occ. eigenvalues --   -0.39952  -0.39937  -0.39929  -0.34864  -0.32849
 Alpha  occ. eigenvalues --   -0.32076
 Alpha virt. eigenvalues --   -0.00742  -0.00308   0.00058   0.00693   0.00776
 Alpha virt. eigenvalues --    0.01375   0.01860   0.02084   0.03324   0.03350
 Alpha virt. eigenvalues --    0.04084   0.05007   0.06523   0.06577   0.07286
 Alpha virt. eigenvalues --    0.07493   0.07580   0.07877   0.08782   0.09951
 Alpha virt. eigenvalues --    0.10839   0.10988   0.11244   0.11349   0.11370
 Alpha virt. eigenvalues --    0.12034   0.12702   0.12981   0.13613   0.13724
 Alpha virt. eigenvalues --    0.13942   0.14124   0.14833   0.15691   0.16047
 Alpha virt. eigenvalues --    0.16053   0.16343   0.16524   0.17163   0.17482
 Alpha virt. eigenvalues --    0.18268   0.18383   0.18989   0.19937   0.21263
 Alpha virt. eigenvalues --    0.21955   0.22694   0.23661   0.23786   0.24291
 Alpha virt. eigenvalues --    0.25453   0.25782   0.26789   0.28427   0.29703
 Alpha virt. eigenvalues --    0.30530   0.31179   0.31501   0.31701   0.32787
 Alpha virt. eigenvalues --    0.32992   0.35229   0.38203   0.38349   0.40123
 Alpha virt. eigenvalues --    0.40584   0.41928   0.42345   0.42909   0.44682
 Alpha virt. eigenvalues --    0.47890   0.47907   0.47976   0.49977   0.50479
 Alpha virt. eigenvalues --    0.52181   0.53561   0.53735   0.54889   0.55580
 Alpha virt. eigenvalues --    0.55635   0.57478   0.57968   0.58902   0.59610
 Alpha virt. eigenvalues --    0.59987   0.60214   0.60270   0.60619   0.61410
 Alpha virt. eigenvalues --    0.63293   0.64764   0.65249   0.67744   0.69471
 Alpha virt. eigenvalues --    0.70255   0.72300   0.72422   0.74101   0.74866
 Alpha virt. eigenvalues --    0.76532   0.77760   0.80997   0.81375   0.82862
 Alpha virt. eigenvalues --    0.83796   0.86932   0.88077   0.88752   0.89307
 Alpha virt. eigenvalues --    0.90968   0.91202   0.92293   0.92390   0.93811
 Alpha virt. eigenvalues --    0.93987   0.94662   0.99000   0.99551   0.99938
 Alpha virt. eigenvalues --    1.01199   1.04157   1.04304   1.05182   1.05714
 Alpha virt. eigenvalues --    1.06271   1.06658   1.09328   1.11937   1.13917
 Alpha virt. eigenvalues --    1.15850   1.16048   1.17861   1.19709   1.23240
 Alpha virt. eigenvalues --    1.25027   1.29855   1.31744   1.33944   1.42990
 Alpha virt. eigenvalues --    1.45455   1.48049   1.48858   1.49466   1.50925
 Alpha virt. eigenvalues --    1.51444   1.52140   1.55001   1.56021   1.58053
 Alpha virt. eigenvalues --    1.59899   1.60376   1.60815   1.61193   1.63608
 Alpha virt. eigenvalues --    1.68183   1.68811   1.69784   1.71220   1.71851
 Alpha virt. eigenvalues --    1.77244   1.77343   1.78203   1.79756   1.80545
 Alpha virt. eigenvalues --    1.86181   1.87686   1.90274   1.91731   1.94311
 Alpha virt. eigenvalues --    1.95323   1.96285   1.98938   1.99266   2.00878
 Alpha virt. eigenvalues --    2.04545   2.06865   2.09898   2.10032   2.17377
 Alpha virt. eigenvalues --    2.19360   2.24074   2.24242   2.28336   2.29502
 Alpha virt. eigenvalues --    2.30698   2.31124   2.33361   2.34742   2.34978
 Alpha virt. eigenvalues --    2.44037   2.44640   2.45037   2.46635   2.48423
 Alpha virt. eigenvalues --    2.48496   2.52158   2.52701   2.53515   2.62671
 Alpha virt. eigenvalues --    2.62835   2.65859   2.67065   2.70226   2.72623
 Alpha virt. eigenvalues --    2.73195   2.74649   2.75679   2.75694   2.77685
 Alpha virt. eigenvalues --    2.79428   2.84421   2.85437   2.86585   2.89597
 Alpha virt. eigenvalues --    2.94277   2.94328   2.94341   2.97950   2.99018
 Alpha virt. eigenvalues --    3.14109   3.18352   3.26071   3.38774   3.39201
 Alpha virt. eigenvalues --    3.42860   3.48391   3.52868   3.55962   3.56646
 Alpha virt. eigenvalues --    3.66707   3.74817   3.78716   3.85281   3.93030
 Alpha virt. eigenvalues --    4.02710   4.03436   4.04621   4.08851   4.15590
 Alpha virt. eigenvalues --    4.18697   4.20757   4.85398   4.93660   5.10595
 Alpha virt. eigenvalues --    5.22081   5.79526   6.58717   6.58805   6.89462
 Alpha virt. eigenvalues --    9.95384  10.00169  23.68200  23.99959  24.01533
 Alpha virt. eigenvalues --   24.04952  24.15291  24.16679  24.27150  25.88559
 Alpha virt. eigenvalues --   25.94222  25.99498  26.04802  26.18442  26.21008
 Alpha virt. eigenvalues --   50.05034  66.94230 216.05067 216.10817
          Condensed to atoms (all electrons):
               1          2          3          4          5          6
     1  C    9.676555  -0.885976  -1.300545   0.117807  -1.134597  -0.602769
     2  C   -0.885976   9.825654   1.341837  -0.558914  -0.141070  -3.752204
     3  C   -1.300545   1.341837   5.946866   0.312319  -0.035007  -0.298122
     4  C    0.117807  -0.558914   0.312319   6.335776   0.284959  -0.460335
     5  C   -1.134597  -0.141070  -0.035007   0.284959   5.831057   1.165973
     6  C   -0.602769  -3.752204  -0.298122  -0.460335   1.165973   9.783278
     7  F    0.508666  -0.243978  -0.042487   0.000392  -0.038499  -0.238597
     8  H   -0.076930   0.456284  -0.048073  -0.015172   0.018043  -0.012071
     9  H    0.010999  -0.017650   0.371209  -0.074366   0.001442   0.028138
    10  H    0.019549  -0.010907  -0.054834   0.449409  -0.052634  -0.007897
    11  H    0.012485   0.030342   0.001208  -0.074242   0.370763  -0.021593
    12  H   -0.077099  -0.013876   0.017018  -0.013245  -0.045523   0.454565
    13  O    0.052877  -0.016750  -0.000967  -0.000885  -0.000749  -0.016645
    14  C   -0.004123   0.001237   0.000652  -0.000131   0.000694   0.002328
    15  H   -0.000498   0.000016  -0.000017   0.000047  -0.000022  -0.000020
    16  H   -0.000498   0.000016  -0.000017   0.000047  -0.000022  -0.000020
    17  H    0.076555  -0.022796  -0.025782   0.023418  -0.025685  -0.029699
    18  Cl  -0.011309   0.008909   0.011265  -0.016352   0.011345   0.012723
    19  H    0.076555  -0.022796  -0.025782   0.023418  -0.025685  -0.029699
    20  Cl  -0.011309   0.008909   0.011265  -0.016352   0.011345   0.012723
               7          8          9         10         11         12
     1  C    0.508666  -0.076930   0.010999   0.019549   0.012485  -0.077099
     2  C   -0.243978   0.456284  -0.017650  -0.010907   0.030342  -0.013876
     3  C   -0.042487  -0.048073   0.371209  -0.054834   0.001208   0.017018
     4  C    0.000392  -0.015172  -0.074366   0.449409  -0.074242  -0.013245
     5  C   -0.038499   0.018043   0.001442  -0.052634   0.370763  -0.045523
     6  C   -0.238597  -0.012071   0.028138  -0.007897  -0.021593   0.454565
     7  F    9.204068  -0.011071  -0.000895   0.000715  -0.000984  -0.010843
     8  H   -0.011071   0.457866  -0.004812   0.000839   0.001303  -0.000427
     9  H   -0.000895  -0.004812   0.439143  -0.005966   0.001085   0.001293
    10  H    0.000715   0.000839  -0.005966   0.453795  -0.005718   0.000802
    11  H   -0.000984   0.001303   0.001085  -0.005718   0.438286  -0.004139
    12  H   -0.010843  -0.000427   0.001293   0.000802  -0.004139   0.455917
    13  O    0.002221   0.000949   0.000046  -0.000000   0.000045   0.000987
    14  C   -0.000633   0.000196  -0.000002   0.000005  -0.000003   0.000216
    15  H   -0.000050  -0.000053  -0.000003  -0.000001  -0.000003  -0.000055
    16  H   -0.000050  -0.000053  -0.000003  -0.000001  -0.000003  -0.000055
    17  H   -0.009587  -0.003752  -0.000457  -0.000258  -0.000407  -0.003905
    18  Cl  -0.001276   0.001767   0.000570   0.000167   0.000539   0.001914
    19  H   -0.009587  -0.003752  -0.000457  -0.000258  -0.000407  -0.003905
    20  Cl  -0.001276   0.001767   0.000570   0.000167   0.000539   0.001914
              13         14         15         16         17         18
     1  C    0.052877  -0.004123  -0.000498  -0.000498   0.076555  -0.011309
     2  C   -0.016750   0.001237   0.000016   0.000016  -0.022796   0.008909
     3  C   -0.000967   0.000652  -0.000017  -0.000017  -0.025782   0.011265
     4  C   -0.000885  -0.000131   0.000047   0.000047   0.023418  -0.016352
     5  C   -0.000749   0.000694  -0.000022  -0.000022  -0.025685   0.011345
     6  C   -0.016645   0.002328  -0.000020  -0.000020  -0.029699   0.012723
     7  F    0.002221  -0.000633  -0.000050  -0.000050  -0.009587  -0.001276
     8  H    0.000949   0.000196  -0.000053  -0.000053  -0.003752   0.001767
     9  H    0.000046  -0.000002  -0.000003  -0.000003  -0.000457   0.000570
    10  H   -0.000000   0.000005  -0.000001  -0.000001  -0.000258   0.000167
    11  H    0.000045  -0.000003  -0.000003  -0.000003  -0.000407   0.000539
    12  H    0.000987   0.000216  -0.000055  -0.000055  -0.003905   0.001914
    13  O    8.211421   0.223827  -0.087487  -0.087487   0.007822  -0.003637
    14  C    0.223827   4.934429   0.404319   0.404319  -0.005623  -0.000551
    15  H   -0.087487   0.404319   0.639667  -0.094048  -0.000363   0.001328
    16  H   -0.087487   0.404319  -0.094048   0.639667   0.001018  -0.000365
    17  H    0.007822  -0.005623  -0.000363   0.001018   0.635555   0.250830
    18  Cl  -0.003637  -0.000551   0.001328  -0.000365   0.250830  16.859725
    19  H    0.007822  -0.005623   0.001018  -0.000363   0.003817  -0.000898
    20  Cl  -0.003637  -0.000551  -0.000365   0.001328  -0.000898   0.000166
              19         20
     1  C    0.076555  -0.011309
     2  C   -0.022796   0.008909
     3  C   -0.025782   0.011265
     4  C    0.023418  -0.016352
     5  C   -0.025685   0.011345
     6  C   -0.029699   0.012723
     7  F   -0.009587  -0.001276
     8  H   -0.003752   0.001767
     9  H   -0.000457   0.000570
    10  H   -0.000258   0.000167
    11  H   -0.000407   0.000539
    12  H   -0.003905   0.001914
    13  O    0.007822  -0.003637
    14  C   -0.005623  -0.000551
    15  H    0.001018  -0.000365
    16  H   -0.000363   0.001328
    17  H    0.003817  -0.000898
    18  Cl  -0.000898   0.000166
    19  H    0.635555   0.250830
    20  Cl   0.250830  16.859725
 Mulliken charges:
               1
     1  C   -0.446396
     2  C    0.013711
     3  C   -0.182008
     4  C   -0.317597
     5  C   -0.196130
     6  C    0.009942
     7  F   -0.106249
     8  H    0.237151
     9  H    0.250115
    10  H    0.213023
    11  H    0.250903
    12  H    0.238445
    13  O   -0.289773
    14  C    0.045016
    15  H    0.136591
    16  H    0.136591
    17  H    0.130195
    18  Cl  -0.126861
    19  H    0.130195
    20  Cl  -0.126861
 Sum of Mulliken charges =  -0.00000
 Mulliken charges with hydrogens summed into heavy atoms:
               1
     1  C   -0.446396
     2  C    0.250863
     3  C    0.068107
     4  C   -0.104574
     5  C    0.054773
     6  C    0.248386
     7  F   -0.106249
    13  O   -0.289773
    14  C    0.318198
    18  Cl   0.003333
    20  Cl   0.003333
 Electronic spatial extent (au):  <R**2>=           3702.6166
 Charge=             -0.0000 electrons
 Dipole moment (field-independent basis, Debye):
    X=             -0.0075    Y=              0.9814    Z=             -0.0000  Tot=              0.9814
 Quadrupole moment (field-independent basis, Debye-Ang):
   XX=            -72.9283   YY=            -45.1294   ZZ=            -97.7798
   XY=              0.1594   XZ=             -0.0000   YZ=              0.0000
 Traceless Quadrupole moment (field-independent basis, Debye-Ang):
   XX=             -0.9825   YY=             26.8164   ZZ=            -25.8340
   XY=              0.1594   XZ=             -0.0000   YZ=              0.0000
 Octapole moment (field-independent basis, Debye-Ang**2):
  XXX=             -0.1093  YYY=            135.9491  ZZZ=              0.0000  XYY=             -0.1295
  XXY=             -5.3245  XXZ=             -0.0000  XZZ=             -0.0807  YZZ=             12.7824
  YYZ=              0.0000  XYZ=             -0.0000
 Hexadecapole moment (field-independent basis, Debye-Ang**3):
 XXXX=           -296.3637 YYYY=          -1649.9974 ZZZZ=          -1916.6976 XXXY=              0.9849
 XXXZ=              0.0000 YYYX=              2.1945 YYYZ=              0.0000 ZZZX=              0.0000
 ZZZY=              0.0000 XXYY=           -464.8389 XXZZ=           -380.6885 YYZZ=           -787.6928
 XXYZ=             -0.0000 YYXZ=             -0.0000 ZZXY=              0.5190
 N-N= 7.116642417577D+02 E-N=-4.659353264528D+03  KE= 1.364008946543D+03
 Symmetry A'   KE= 8.847714316616D+02
 Symmetry A"   KE= 4.792375148812D+02
 1\1\GINC-R820\POpt\RM062X\6-311++G(d,p)\C7H9Cl2F1O1\ZJXU\03-Apr-2024\1
 \\# m062x 6-311++G(d,p) opt=z-matrix scrf=(solvent=water)\\test\\0,1\C
 \C,1,d1\C,2,d2,1,120.\C,3,d3,2,120.,1,0.,0\C,4,d4,3,120.,2,0.,0\C,5,d5
 ,4,120.,3,0.,0\F,1,d6,2,120.,3,180.,0\H,2,d7,3,120.,4,180.,0\H,3,d8,4,
 120.,5,180.,0\H,4,d9,5,120.,6,180.,0\H,5,d10,6,120.,1,180.,0\H,6,d11,1
 ,120.,2,180.,0\O,7,d12,1,179.9,3,180.,0\C,13,d13,1,179.9,2,180.,0\H,14
 ,d14,1,120.,2,90.,0\H,14,d15,1,120.,2,-90.,0\H,7,d16,1,100.,2,90.,0\Cl
 ,17,d17,7,160.,1,0.,0\H,7,d18,1,100.,2,-90.,0\Cl,19,d19,7,160.,1,0.,0\
 \d1=1.37790185\d2=1.38262672\d3=1.3876472\d4=1.39574806\d5=1.40000249\
 d6=1.36193394\d7=1.08410561\d8=1.08258719\d9=1.08296186\d10=1.08251041
 \d11=1.08332095\d12=2.9523025\d13=1.20487314\d14=1.10052454\d15=1.1005
 2454\d16=2.05437477\d17=1.28810193\d18=2.05437477\d19=1.28810193\\Vers
 ion=ES64L-G16RevB.01\State=1-A'\HF=-1367.5431983\RMSD=5.907e-09\RMSF=4
 .037e-03\Dipole=-0.3358542,0.,-0.1905124\Quadrupole=14.6678128,-19.206
 9242,4.5391114,0.,9.0086667,0.\PG=CS [SG(C7H5F1O1),X(H4Cl2)]\\@


 AND HERE I AM, FOR ALL MY LORE,
 THE WRETCHED FOOL I WAS BEFORE.
 CALLED MASTER OF ARTS, AND DOCTOR TO BOOT,
 FOR TEN YEARS ALMOST I CONFUTE
 AND UP AND DOWN, WHEREVER IT GOES
 I DRAG MY STUDENTS BY THE NOSE --
 AND SEE THAT FOR ALL OUR SCIENCE AND ART
 WE CAN KNOW NOTHING.  IT BURNS MY HEART.

                                       -- FAUST
 Job cpu time:       0 days  1 hours 53 minutes 24.3 seconds.
 Elapsed time:       0 days  0 hours 56 minutes 44.3 seconds.
 File lengths (MBytes):  RWF=    203 Int=      0 D2E=      0 Chk=     11 Scr=      1
 Normal termination of Gaussian 16 at Wed Apr  3 14:19:13 2024.
