 Entering Gaussian System, Link 0=g16
 Input=model_H1.gjf
 Output=model_H1.log
 Initial command:
 /home/zjxu/prog/g16/l1.exe "/home/zjxu/zjhan/5_model/HCl/water/Gau-45936.inp" -scrdir="/home/zjxu/zjhan/5_model/HCl/water/"
 Entering Link 1 = /home/zjxu/prog/g16/l1.exe PID=     45937.
  
 Copyright (c) 1988-2017, Gaussian, Inc.  All Rights Reserved.
  
 This is part of the Gaussian(R) 16 program.  It is based on
 the Gaussian(R) 09 system (copyright 2009, Gaussian, Inc.),
 the Gaussian(R) 03 system (copyright 2003, Gaussian, Inc.),
 the Gaussian(R) 98 system (copyright 1998, Gaussian, Inc.),
 the Gaussian(R) 94 system (copyright 1995, Gaussian, Inc.),
 the Gaussian 92(TM) system (copyright 1992, Gaussian, Inc.),
 the Gaussian 90(TM) system (copyright 1990, Gaussian, Inc.),
 the Gaussian 88(TM) system (copyright 1988, Gaussian, Inc.),
 the Gaussian 86(TM) system (copyright 1986, Carnegie Mellon
 University), and the Gaussian 82(TM) system (copyright 1983,
 Carnegie Mellon University). Gaussian is a federally registered
 trademark of Gaussian, Inc.
  
 This software contains proprietary and confidential information,
 including trade secrets, belonging to Gaussian, Inc.
  
 This software is provided under written license and may be
 used, copied, transmitted, or stored only in accord with that
 written license.
  
 The following legend is applicable only to US Government
 contracts under FAR:
  
                    RESTRICTED RIGHTS LEGEND
  
 Use, reproduction and disclosure by the US Government is
 subject to restrictions as set forth in subparagraphs (a)
 and (c) of the Commercial Computer Software - Restricted
 Rights clause in FAR 52.227-19.
  
 Gaussian, Inc.
 340 Quinnipiac St., Bldg. 40, Wallingford CT 06492
  
  
 ---------------------------------------------------------------
 Warning -- This program may not be used in any manner that
 competes with the business of Gaussian, Inc. or will provide
 assistance to any competitor of Gaussian, Inc.  The licensee
 of this program is prohibited from giving any competitor of
 Gaussian, Inc. access to this program.  By using this program,
 the user acknowledges that Gaussian, Inc. is engaged in the
 business of creating and licensing software in the field of
 computational chemistry and represents and warrants to the
 licensee that it is not a competitor of Gaussian, Inc. and that
 it will not use this program in any manner prohibited above.
 ---------------------------------------------------------------
  

 Cite this work as:
 Gaussian 16, Revision B.01,
 M. J. Frisch, G. W. Trucks, H. B. Schlegel, G. E. Scuseria, 
 M. A. Robb, J. R. Cheeseman, G. Scalmani, V. Barone, 
 G. A. Petersson, H. Nakatsuji, X. Li, M. Caricato, A. V. Marenich, 
 J. Bloino, B. G. Janesko, R. Gomperts, B. Mennucci, H. P. Hratchian, 
 J. V. Ortiz, A. F. Izmaylov, J. L. Sonnenberg, D. Williams-Young, 
 F. Ding, F. Lipparini, F. Egidi, J. Goings, B. Peng, A. Petrone, 
 T. Henderson, D. Ranasinghe, V. G. Zakrzewski, J. Gao, N. Rega, 
 G. Zheng, W. Liang, M. Hada, M. Ehara, K. Toyota, R. Fukuda, 
 J. Hasegawa, M. Ishida, T. Nakajima, Y. Honda, O. Kitao, H. Nakai, 
 T. Vreven, K. Throssell, J. A. Montgomery, Jr., J. E. Peralta, 
 F. Ogliaro, M. J. Bearpark, J. J. Heyd, E. N. Brothers, K. N. Kudin, 
 V. N. Staroverov, T. A. Keith, R. Kobayashi, J. Normand, 
 K. Raghavachari, A. P. Rendell, J. C. Burant, S. S. Iyengar, 
 J. Tomasi, M. Cossi, J. M. Millam, M. Klene, C. Adamo, R. Cammi, 
 J. W. Ochterski, R. L. Martin, K. Morokuma, O. Farkas, 
 J. B. Foresman, and D. J. Fox, Gaussian, Inc., Wallingford CT, 2016.
 
 ******************************************
 Gaussian 16:  ES64L-G16RevB.01 20-Dec-2017
                 3-Apr-2024 
 ******************************************
 %mem=2GB
 %nproc=2
 Will use up to    2 processors via shared memory.
 %chk=model_H1
 ----------------------------------------------------------------------
 # m062x 6-311++G(d,p) opt=(loose,z-matrix,recalc=5) scrf=(solvent=wate
 r)
 ----------------------------------------------------------------------
 1/7=-1,10=7,18=40,26=3,38=1,71=5/1,3;
 2/12=2,17=6,18=5,29=3,40=1/2;
 3/5=4,6=6,7=1111,11=2,25=1,30=1,70=2201,71=2,72=1,74=-55,140=1/1,2,3;
 4//1;
 5/5=2,38=5,53=1/2;
 8/6=4,10=90,11=11/1;
 11/6=1,8=1,9=11,15=111,16=1/1,2,10;
 10/6=1/2;
 6/7=2,8=2,9=2,10=2,28=1/1;
 7/10=1,25=1/1,2,3,16;
 1/7=-1,10=7,18=40,26=3,71=5/3(3);
 2/29=3/2;
 7/9=1,25=1,44=-1/16;
 99//99;
 2/29=3/2;
 3/5=4,6=6,7=1111,11=2,25=1,30=1,70=2205,71=2,72=1,74=-55,140=1/1,2,3;
 4/5=5,16=3,69=1/1;
 5/5=2,38=5,53=1/2;
 8/6=4,10=90,11=11/1;
 11/6=1,8=1,9=11,15=111,16=1/1,2,10;
 10/6=1/2;
 7/10=1,25=1/1,2,3,16;
 1/7=-1,18=40,26=3,71=5/3(-8);
 2/29=3/2;
 6/7=2,8=2,9=2,10=2,19=2,28=1/1;
 7/9=1,25=1,44=-1/16;
 99/9=1/99;
 ----
 test
 ----
 Symbolic Z-matrix:
 Charge =  0 Multiplicity = 1
 C1
 C2                   1    d1
 C3                   2    d2       1     120. 
 C4                   3    d3       2     120.     1     0.       0
 C5                   4    d4       3     120.     2     0.       0
 C6                   5    d5       4     120.     3     0.       0
 F7                   1    d6       2     120.     3     180.     0
 H8                   2    d7       3     120.     4     180.     0
 H9                   3    d8       4     120.     5     180.     0
 H10                  4    d9       5     120.     6     180.     0
 H11                  5    d10      6     120.     1     180.     0
 H12                  6    d11      1     120.     2     180.     0
 O13                  7    d12      1     179.9    3     180.     0
 C14                  13   d13      1     179.9    2     180.     0
 H15                  14   d14      1     120.     2     90.      0
 H16                  14   d15      1     120.     2    -90.      0
 H17                  7    d16      1     100.     2     90.      0
 Cl18                 17   d17      7     160.     1     0.       0
       Variables:
  d1                    1.3                      
  d2                    1.3                      
  d3                    1.3                      
  d4                    1.3                      
  d5                    1.3                      
  d6                    1.4                      
  d7                    1.                       
  d8                    1.                       
  d9                    1.                       
  d10                   1.                       
  d11                   1.                       
  d12                   2.8                      
  d13                   1.2                      
  d14                   1.                       
  d15                   1.                       
  d16                   2.3                      
  d17                   0.9                      
 

 GradGradGradGradGradGradGradGradGradGradGradGradGradGradGradGradGradGrad
 Berny optimization.
 Initialization pass.
                       ----------------------------
                       !    Initial Parameters    !
                       ! (Angstroms and Degrees)  !
 ----------------------                            ----------------------
 !      Name          Value   Derivative information (Atomic Units)     !
 ------------------------------------------------------------------------
 !       d1          1.3      calculate D2E/DX2 analytically            !
 !       d2          1.3      calculate D2E/DX2 analytically            !
 !       d3          1.3      calculate D2E/DX2 analytically            !
 !       d4          1.3      calculate D2E/DX2 analytically            !
 !       d5          1.3      calculate D2E/DX2 analytically            !
 !       d6          1.4      calculate D2E/DX2 analytically            !
 !       d7          1.0      calculate D2E/DX2 analytically            !
 !       d8          1.0      calculate D2E/DX2 analytically            !
 !       d9          1.0      calculate D2E/DX2 analytically            !
 !       d10         1.0      calculate D2E/DX2 analytically            !
 !       d11         1.0      calculate D2E/DX2 analytically            !
 !       d12         2.8      calculate D2E/DX2 analytically            !
 !       d13         1.2      calculate D2E/DX2 analytically            !
 !       d14         1.0      calculate D2E/DX2 analytically            !
 !       d15         1.0      calculate D2E/DX2 analytically            !
 !       d16         2.3      calculate D2E/DX2 analytically            !
 !       d17         0.9      calculate D2E/DX2 analytically            !
 ------------------------------------------------------------------------
 Trust Radius=3.00D-01 FncErr=1.00D-07 GrdErr=1.00D-06 EigMax=2.50D+02 EigMin=1.00D-04
 Number of steps in this run=     27 maximum allowed number of steps=    100.
 GradGradGradGradGradGradGradGradGradGradGradGradGradGradGradGradGradGrad

 ---------------------------------------------------------------------------------------------------
                            Z-MATRIX (ANGSTROMS AND DEGREES)
   CD    Cent   Atom    N1       Length/X        N2       Alpha/Y        N3        Beta/Z          J
 ---------------------------------------------------------------------------------------------------
      1      1  C 
      2      2  C        1   1.300000(     1)
      3      3  C        2   1.300000(     2)      1  120.000(    18)
      4      4  C        3   1.300000(     3)      2  120.000(    19)      1    0.000(    34)      0
      5      5  C        4   1.300000(     4)      3  120.000(    20)      2    0.000(    35)      0
      6      6  C        5   1.300000(     5)      4  120.000(    21)      3    0.000(    36)      0
      7      7  F        1   1.400000(     6)      2  120.000(    22)      3  180.000(    37)      0
      8      8  H        2   1.000000(     7)      3  120.000(    23)      4  180.000(    38)      0
      9      9  H        3   1.000000(     8)      4  120.000(    24)      5  180.000(    39)      0
     10     10  H        4   1.000000(     9)      5  120.000(    25)      6  180.000(    40)      0
     11     11  H        5   1.000000(    10)      6  120.000(    26)      1  180.000(    41)      0
     12     12  H        6   1.000000(    11)      1  120.000(    27)      2  180.000(    42)      0
     13     13  O        7   2.800000(    12)      1  179.900(    28)      3  180.000(    43)      0
     14     14  C       13   1.200000(    13)      1  179.900(    29)      2  180.000(    44)      0
     15     15  H       14   1.000000(    14)      1  120.000(    30)      2   90.000(    45)      0
     16     16  H       14   1.000000(    15)      1  120.000(    31)      2  -90.000(    46)      0
     17     17  H        7   2.300000(    16)      1  100.000(    32)      2   90.000(    47)      0
     18     18  Cl      17   0.900000(    17)      7  160.000(    33)      1    0.000(    48)      0
 ---------------------------------------------------------------------------------------------------
                         Z-Matrix orientation:                         
 ---------------------------------------------------------------------
 Center     Atomic      Atomic             Coordinates (Angstroms)
 Number     Number       Type             X           Y           Z
 ---------------------------------------------------------------------
      1          6           0        0.000000    0.000000    0.000000
      2          6           0        0.000000    0.000000    1.300000
      3          6           0        1.125833    0.000000    1.950000
      4          6           0        2.251666    0.000000    1.300000
      5          6           0        2.251666    0.000000   -0.000000
      6          6           0        1.125833    0.000000   -0.650000
      7          9           0       -1.212436   -0.000000   -0.700000
      8          1           0       -0.866025   -0.000000    1.800000
      9          1           0        1.125833   -0.000000    2.950000
     10          1           0        3.117691   -0.000000    1.800000
     11          1           0        3.117691   -0.000000   -0.500000
     12          1           0        1.125833   -0.000000   -1.650000
     13          8           0       -3.634860   -0.000000   -2.104230
     14          6           0       -4.672340   -0.000000   -2.707251
     15          1           0       -5.104965    0.866025   -2.957922
     16          1           0       -5.104965   -0.866025   -2.957922
     17          1           0       -1.558318    2.265058   -0.899695
     18         17           0       -1.422973    3.151385   -0.821554
 ---------------------------------------------------------------------
                    Distance matrix (angstroms):
                    1          2          3          4          5
     1  C    0.000000
     2  C    1.300000   0.000000
     3  C    2.251666   1.300000   0.000000
     4  C    2.600000   2.251666   1.300000   0.000000
     5  C    2.251666   2.600000   2.251666   1.300000   0.000000
     6  C    1.300000   2.251666   2.600000   2.251666   1.300000
     7  F    1.400000   2.338803   3.534119   4.000000   3.534119
     8  H    1.997498   1.000000   1.997498   3.157531   3.600000
     9  H    3.157531   1.997498   1.000000   1.997498   3.157531
    10  H    3.600000   3.157531   1.997498   1.000000   1.997498
    11  H    3.157531   3.600000   3.157531   1.997498   1.000000
    12  H    1.997498   3.157531   3.600000   3.157531   1.997498
    13  O    4.199999   4.980059   6.253077   6.799997   6.251317
    14  C    5.399997   6.155390   7.436988   7.999995   7.434452
    15  H    5.963218   6.703772   7.978755   8.543999   7.976172
    16  H    5.963218   6.703772   7.978755   8.543999   7.976172
    17  H    2.892800   3.521009   4.522822   4.948245   4.522822
    18  Cl   3.554016   4.056731   4.910107   5.285375   4.910107
                    6          7          8          9         10
     6  C    0.000000
     7  F    2.338803   0.000000
     8  H    3.157531   2.523886   0.000000
     9  H    3.600000   4.334743   2.300000   0.000000
    10  H    3.157531   5.000000   3.983717   2.300000   0.000000
    11  H    1.997498   4.334743   4.600000   3.983717   2.300000
    12  H    1.000000   2.523886   3.983717   4.600000   3.983717
    13  O    4.977849   2.800000   4.786382   6.943301   7.799997
    14  C    6.152324   3.999999   5.899436   8.100821   8.999995
    15  H    6.700697   4.582575   6.430896   8.629970   9.539387
    16  H    6.700697   4.582575   6.430896   8.629970   9.539387
    17  H    3.521009   2.300000   3.591394   5.211076   5.855246
    18  Cl   4.056731   3.160748   4.136902   5.536448   6.117303
                   11         12         13         14         15
    11  H    0.000000
    12  H    2.300000   0.000000
    13  O    6.940497   4.782313   0.000000
    14  C    8.096700   5.893776   1.200000   0.000000
    15  H    8.625744   6.425224   1.907878   1.000000   0.000000
    16  H    8.625744   6.425224   1.907878   1.000000   1.732051
    17  H    5.211076   3.591394   3.300517   4.253807   4.332700
    18  Cl   5.536448   4.136902   4.058193   4.903618   4.831563
                   16         17         18
    16  H    0.000000
    17  H    5.159329   0.000000
    18  Cl   5.853266   0.900000   0.000000
 Stoichiometry    C7H8ClFO
 Framework group  C1[X(C7H8ClFO)]
 Deg. of freedom    48
 Full point group                 C1      NOp   1
 Largest Abelian subgroup         C1      NOp   1
 Largest concise Abelian subgroup C1      NOp   1
                         Standard orientation:                         
 ---------------------------------------------------------------------
 Center     Atomic      Atomic             Coordinates (Angstroms)
 Number     Number       Type             X           Y           Z
 ---------------------------------------------------------------------
      1          6           0       -0.845935   -0.562559   -0.001337
      2          6           0       -1.491799   -0.478897   -1.126442
      3          6           0       -2.781420   -0.314963   -1.124989
      4          6           0       -3.425178   -0.234691    0.001569
      5          6           0       -2.779314   -0.318352    1.126674
      6          6           0       -1.489692   -0.482286    1.125221
      7          9           0        0.542888   -0.739103   -0.002902
      8          1           0       -0.996601   -0.540645   -1.993025
      9          1           0       -3.278239   -0.250609   -1.990454
     10          1           0       -4.417194   -0.108588    0.002687
     11          1           0       -3.274512   -0.256604    1.993257
     12          1           0       -0.992874   -0.546641    1.990686
     13          8           0        3.320535   -1.092198   -0.001145
     14          6           0        4.510953   -1.243526    0.001004
     15          1           0        5.116171   -0.447468    0.002412
     16          1           0        4.897752   -2.165690    0.000030
     17          1           0        1.224725    1.457506   -0.000234
     18         17           0        1.181459    2.356465    0.001159
 ---------------------------------------------------------------------
 Rotational constants (GHZ):           1.4908804           0.4880710           0.4139825
 Standard basis: 6-311++G(d,p) (5D, 7F)
 There are   294 symmetry adapted cartesian basis functions of A   symmetry.
 There are   284 symmetry adapted basis functions of A   symmetry.
   284 basis functions,   449 primitive gaussians,   294 cartesian basis functions
    42 alpha electrons       42 beta electrons
       nuclear repulsion energy       556.5025655466 Hartrees.
 NAtoms=   18 NActive=   18 NUniq=   18 SFac= 1.00D+00 NAtFMM=   60 NAOKFM=F Big=F
 Integral buffers will be    131072 words long.
 Raffenetti 2 integral format.
 Two-electron integral symmetry is turned on.
 Force inversion solution in PCM.
 ------------------------------------------------------------------------------
 Polarizable Continuum Model (PCM)
 =================================
 Model                : PCM.
 Atomic radii         : UFF (Universal Force Field).
 Polarization charges : Total charges.
 Charge compensation  : None.
 Solution method      : Matrix inversion.
 Cavity type          : Scaled VdW (van der Waals Surface) (Alpha=1.100).
 Cavity algorithm     : GePol (No added spheres)
                        Default sphere list used, NSphG=   18.
                        Lebedev-Laikov grids with approx.  5.0 points / Ang**2.
                        Smoothing algorithm: York/Karplus (Gamma=1.0000).
                        Polarization charges: spherical gaussians, with
                                              point-specific exponents (IZeta= 3).
                        Self-potential: point-specific (ISelfS= 7).
                        Self-field    : sphere-specific E.n sum rule (ISelfD= 2).
 1st derivatives      : Analytical E(r).r(x)/FMM algorithm (CHGder, D1EAlg=3).
                        Cavity 1st derivative terms included.
 2nd derivatives      : Analytical E(r).r(xy)/FMM algorithm (CHGder, D2EAlg=3).
                        Cavity 2nd derivative terms included.
 Solvent              : Water, Eps=  78.355300 Eps(inf)=   1.777849
 ------------------------------------------------------------------------------
 Spheres list:
 ISph  on   Nord     Re0    Alpha      Xe            Ye            Ze
    1   C      1    1.9255  1.100     -0.845935     -0.562559     -0.001337
    2   C      2    1.9255  1.100     -1.491799     -0.478897     -1.126442
    3   C      3    1.9255  1.100     -2.781420     -0.314963     -1.124989
    4   C      4    1.9255  1.100     -3.425178     -0.234691      0.001569
    5   C      5    1.9255  1.100     -2.779314     -0.318352      1.126674
    6   C      6    1.9255  1.100     -1.489692     -0.482286      1.125221
    7   F      7    1.6820  1.100      0.542888     -0.739103     -0.002902
    8   H      8    1.4430  1.100     -0.996601     -0.540645     -1.993025
    9   H      9    1.4430  1.100     -3.278239     -0.250609     -1.990454
   10   H     10    1.4430  1.100     -4.417194     -0.108588      0.002687
   11   H     11    1.4430  1.100     -3.274512     -0.256604      1.993257
   12   H     12    1.4430  1.100     -0.992874     -0.546641      1.990686
   13   O     13    1.7500  1.100      3.320535     -1.092198     -0.001145
   14   C     14    1.9255  1.100      4.510953     -1.243526      0.001004
   15   H     15    1.4430  1.100      5.116171     -0.447468      0.002412
   16   H     16    1.4430  1.100      4.897752     -2.165690      0.000030
   17   H     17    1.4430  1.100      1.224725      1.457506     -0.000234
   18  Cl     18    1.9735  1.100      1.181459      2.356465      0.001159
 ------------------------------------------------------------------------------
 One-electron integrals computed using PRISM.
 NBasis=   284 RedAO= T EigKep=  4.19D-06  NBF=   284
 NBsUse=   283 1.00D-06 EigRej=  5.62D-07 NBFU=   283
 ExpMin= 3.60D-02 ExpMax= 1.06D+05 ExpMxC= 3.62D+03 IAcc=3 IRadAn=         5 AccDes= 0.00D+00
 Harris functional with IExCor= 1009 and IRadAn=       5 diagonalized for initial guess.
 HarFok:  IExCor= 1009 AccDes= 0.00D+00 IRadAn=         5 IDoV= 1 UseB2=F ITyADJ=14
 ICtDFT=  3500011 ScaDFX=  1.000000  1.000000  1.000000  1.000000
 FoFCou: FMM=F IPFlag=           0 FMFlag=      100000 FMFlg1=           0
         NFxFlg=           0 DoJE=T BraDBF=F KetDBF=T FulRan=T
         wScrn=  0.000000 ICntrl=       500 IOpCl=  0 I1Cent=   200000004 NGrid=           0
         NMat0=    1 NMatS0=      1 NMatT0=    0 NMatD0=    1 NMtDS0=    0 NMtDT0=    0
 Petite list used in FoFCou.
 Requested convergence on RMS density matrix=1.00D-08 within 128 cycles.
 Requested convergence on MAX density matrix=1.00D-06.
 Requested convergence on             energy=1.00D-06.
 No special actions if energy rises.
 Inv3:  Mode=1 IEnd=     9915372.
 Iteration    1 A*A^-1 deviation from unit magnitude is 5.11D-15 for   1805.
 Iteration    1 A*A^-1 deviation from orthogonality  is 1.64D-15 for   1816   1812.
 Iteration    1 A^-1*A deviation from unit magnitude is 5.11D-15 for   1805.
 Iteration    1 A^-1*A deviation from orthogonality  is 1.30D-15 for   1812   1804.
 Error on total polarization charges =  0.01347
 SCF Done:  E(RM062X) =  -906.450253700     A.U. after   14 cycles
            NFock= 14  Conv=0.22D-08     -V/T= 1.9985
 DoSCS=F DFT=T ScalE2(SS,OS)=  1.000000  1.000000
 Range of M.O.s used for correlation:     1   283
 NBasis=   284 NAE=    42 NBE=    42 NFC=     0 NFV=     0
 NROrb=    283 NOA=    42 NOB=    42 NVA=   241 NVB=   241

 **** Warning!!: The largest alpha MO coefficient is  0.13971647D+03

 Symmetrizing basis deriv contribution to polar:
 IMax=3 JMax=2 DiffMx= 0.00D+00
 G2DrvN: will do    19 centers at a time, making    1 passes.
 Calling FoFCou, ICntrl=  3107 FMM=F I1Cent=   0 AccDes= 0.00D+00.
 NEqPCM:  Using equilibrium solvation (IEInf=0, Eps=  78.3553, EpsInf=   1.7778)
 G2PCM: DoFxE=T DoFxN=T DoGrad=T DoDP/DQ/DG/TGxP=FFFF NFrqRd=   0 IEInf=0 SqF1=F DoCFld=F IF1Alg=4.
 End of G2Drv F.D. properties file   721 does not exist.
 End of G2Drv F.D. properties file   722 does not exist.
 End of G2Drv F.D. properties file   788 does not exist.
          IDoAtm=111111111111111111
 NEqPCM:  Using equilibrium solvation (IEInf=0, Eps=  78.3553, EpsInf=   1.7778)
          Differentiating once with respect to electric field.
                with respect to dipole field.
          Differentiating once with respect to nuclear coordinates.
 CalDSu exits because no D1Ps are significant.
          There are    57 degrees of freedom in the 1st order CPHF.  IDoFFX=6 NUNeed=     3.
     54 vectors produced by pass  0 Test12= 1.78D-14 1.75D-09 XBig12= 5.60D+01 3.68D+00.
 AX will form    54 AO Fock derivatives at one time.
     54 vectors produced by pass  1 Test12= 1.78D-14 1.75D-09 XBig12= 7.15D+00 4.04D-01.
     54 vectors produced by pass  2 Test12= 1.78D-14 1.75D-09 XBig12= 9.95D-02 7.50D-02.
     54 vectors produced by pass  3 Test12= 1.78D-14 1.75D-09 XBig12= 8.25D-04 6.34D-03.
     54 vectors produced by pass  4 Test12= 1.78D-14 1.75D-09 XBig12= 3.73D-06 3.11D-04.
     52 vectors produced by pass  5 Test12= 1.78D-14 1.75D-09 XBig12= 1.90D-08 2.55D-05.
     41 vectors produced by pass  6 Test12= 1.78D-14 1.75D-09 XBig12= 5.74D-11 1.00D-06.
      6 vectors produced by pass  7 Test12= 1.78D-14 1.75D-09 XBig12= 2.03D-13 8.06D-08.
      2 vectors produced by pass  8 Test12= 1.78D-14 1.75D-09 XBig12= 7.06D-16 3.42D-09.
 InvSVY:  IOpt=1 It=  1 EMax= 4.44D-15
 Solved reduced A of dimension   371 with    57 vectors.
 Isotropic polarizability for W=    0.000000      101.16 Bohr**3.
 End of Minotr F.D. properties file   721 does not exist.
 End of Minotr F.D. properties file   722 does not exist.
 End of Minotr F.D. properties file   788 does not exist.

 **********************************************************************

            Population analysis using the SCF Density.

 **********************************************************************

 Orbital symmetries:
       Occupied  (A) (A) (A) (A) (A) (A) (A) (A) (A) (A) (A) (A)
                 (A) (A) (A) (A) (A) (A) (A) (A) (A) (A) (A) (A)
                 (A) (A) (A) (A) (A) (A) (A) (A) (A) (A) (A) (A)
                 (A) (A) (A) (A) (A) (A)
       Virtual   (A) (A) (A) (A) (A) (A) (A) (A) (A) (A) (A) (A)
                 (A) (A) (A) (A) (A) (A) (A) (A) (A) (A) (A) (A)
                 (A) (A) (A) (A) (A) (A) (A) (A) (A) (A) (A) (A)
                 (A) (A) (A) (A) (A) (A) (A) (A) (A) (A) (A) (A)
                 (A) (A) (A) (A) (A) (A) (A) (A) (A) (A) (A) (A)
                 (A) (A) (A) (A) (A) (A) (A) (A) (A) (A) (A) (A)
                 (A) (A) (A) (A) (A) (A) (A) (A) (A) (A) (A) (A)
                 (A) (A) (A) (A) (A) (A) (A) (A) (A) (A) (A) (A)
                 (A) (A) (A) (A) (A) (A) (A) (A) (A) (A) (A) (A)
                 (A) (A) (A) (A) (A) (A) (A) (A) (A) (A) (A) (A)
                 (A) (A) (A) (A) (A) (A) (A) (A) (A) (A) (A) (A)
                 (A) (A) (A) (A) (A) (A) (A) (A) (A) (A) (A) (A)
                 (A) (A) (A) (A) (A) (A) (A) (A) (A) (A) (A) (A)
                 (A) (A) (A) (A) (A) (A) (A) (A) (A) (A) (A) (A)
                 (A) (A) (A) (A) (A) (A) (A) (A) (A) (A) (A) (A)
                 (A) (A) (A) (A) (A) (A) (A) (A) (A) (A) (A) (A)
                 (A) (A) (A) (A) (A) (A) (A) (A) (A) (A) (A) (A)
                 (A) (A) (A) (A) (A) (A) (A) (A) (A) (A) (A) (A)
                 (A) (A) (A) (A) (A) (A) (A) (A) (A) (A) (A) (A)
                 (A) (A) (A) (A) (A) (A) (A) (A) (A) (A) (A) (A)
                 (A)
 The electronic state is 1-A.
 Alpha  occ. eigenvalues -- -102.65012 -25.24976 -19.63867 -10.61540 -10.61208
 Alpha  occ. eigenvalues --  -10.52336 -10.52333 -10.52095 -10.52083 -10.51358
 Alpha  occ. eigenvalues --   -9.81503  -7.54222  -7.53052  -7.53051  -1.35514
 Alpha  occ. eigenvalues --   -1.19090  -1.03883  -1.03097  -0.89272  -0.88354
 Alpha  occ. eigenvalues --   -0.74891  -0.73702  -0.72236  -0.66275  -0.60435
 Alpha  occ. eigenvalues --   -0.59311  -0.58948  -0.58501  -0.56117  -0.53913
 Alpha  occ. eigenvalues --   -0.53437  -0.52457  -0.49817  -0.47691  -0.47499
 Alpha  occ. eigenvalues --   -0.44379  -0.41977  -0.40989  -0.40958  -0.35024
 Alpha  occ. eigenvalues --   -0.33848  -0.32762
 Alpha virt. eigenvalues --   -0.00429  -0.00049   0.00988   0.01568   0.02157
 Alpha virt. eigenvalues --    0.02516   0.02566   0.03446   0.03667   0.04351
 Alpha virt. eigenvalues --    0.04748   0.06392   0.06935   0.07475   0.07798
 Alpha virt. eigenvalues --    0.08069   0.08804   0.10896   0.11176   0.11526
 Alpha virt. eigenvalues --    0.12003   0.12240   0.13198   0.13611   0.13941
 Alpha virt. eigenvalues --    0.14323   0.14398   0.14953   0.15020   0.15054
 Alpha virt. eigenvalues --    0.15841   0.16505   0.16889   0.17623   0.18291
 Alpha virt. eigenvalues --    0.18629   0.19725   0.20735   0.21103   0.22049
 Alpha virt. eigenvalues --    0.22689   0.23292   0.23769   0.24675   0.26438
 Alpha virt. eigenvalues --    0.26655   0.28256   0.30070   0.31307   0.32270
 Alpha virt. eigenvalues --    0.33017   0.33418   0.34789   0.35776   0.36783
 Alpha virt. eigenvalues --    0.37231   0.39038   0.39893   0.40912   0.42518
 Alpha virt. eigenvalues --    0.42837   0.43775   0.45388   0.46605   0.49145
 Alpha virt. eigenvalues --    0.50247   0.50847   0.52659   0.54521   0.54534
 Alpha virt. eigenvalues --    0.56631   0.58118   0.59057   0.59253   0.59446
 Alpha virt. eigenvalues --    0.60879   0.61438   0.61710   0.64039   0.64353
 Alpha virt. eigenvalues --    0.65425   0.66001   0.67118   0.70050   0.70498
 Alpha virt. eigenvalues --    0.72128   0.74575   0.75282   0.76555   0.78617
 Alpha virt. eigenvalues --    0.79407   0.81674   0.81813   0.85199   0.85561
 Alpha virt. eigenvalues --    0.89189   0.89896   0.90136   0.91457   0.93519
 Alpha virt. eigenvalues --    0.95862   0.98598   1.00237   1.01051   1.02100
 Alpha virt. eigenvalues --    1.02393   1.04869   1.06184   1.08007   1.08373
 Alpha virt. eigenvalues --    1.10299   1.11628   1.16174   1.16341   1.16955
 Alpha virt. eigenvalues --    1.19621   1.22852   1.24049   1.26274   1.27350
 Alpha virt. eigenvalues --    1.32459   1.34700   1.35325   1.41963   1.51776
 Alpha virt. eigenvalues --    1.52364   1.52374   1.54060   1.56315   1.60537
 Alpha virt. eigenvalues --    1.60885   1.63113   1.64933   1.67645   1.68284
 Alpha virt. eigenvalues --    1.69744   1.72111   1.72949   1.76607   1.76800
 Alpha virt. eigenvalues --    1.78630   1.81618   1.82014   1.85295   1.85806
 Alpha virt. eigenvalues --    1.85930   1.90195   1.91531   1.94397   1.97440
 Alpha virt. eigenvalues --    1.98862   2.04465   2.04490   2.05750   2.05850
 Alpha virt. eigenvalues --    2.07306   2.11492   2.15791   2.16631   2.17298
 Alpha virt. eigenvalues --    2.18953   2.20224   2.21858   2.23634   2.28420
 Alpha virt. eigenvalues --    2.32562   2.36702   2.37246   2.40958   2.46529
 Alpha virt. eigenvalues --    2.48353   2.50627   2.51069   2.58168   2.63670
 Alpha virt. eigenvalues --    2.67138   2.70986   2.71714   2.75341   2.76825
 Alpha virt. eigenvalues --    2.76867   2.78710   2.79408   2.81267   2.86557
 Alpha virt. eigenvalues --    2.86670   2.87871   2.88765   2.90496   2.96410
 Alpha virt. eigenvalues --    2.98072   2.98676   3.03380   3.08098   3.12005
 Alpha virt. eigenvalues --    3.24144   3.27340   3.34565   3.39713   3.42021
 Alpha virt. eigenvalues --    3.46139   3.55378   3.59799   3.61769   3.64602
 Alpha virt. eigenvalues --    3.75282   3.75803   3.87088   3.88935   3.98908
 Alpha virt. eigenvalues --    4.00542   4.05069   4.08957   4.14254   4.18133
 Alpha virt. eigenvalues --    4.19440   4.26274   4.26442   4.36680   4.95508
 Alpha virt. eigenvalues --    4.95697   5.11251   5.23636   5.81274   6.51917
 Alpha virt. eigenvalues --    6.61266   6.88633  10.30623  23.73002  24.17374
 Alpha virt. eigenvalues --   24.26962  24.31759  24.54395  24.57512  24.72964
 Alpha virt. eigenvalues --   25.90630  26.02976  27.09713  50.06714  66.96921
 Alpha virt. eigenvalues --  216.51812
          Condensed to atoms (all electrons):
               1          2          3          4          5          6
     1  C   10.329010  -0.923274  -1.195340  -0.004603  -1.194364  -0.919816
     2  C   -0.923274  11.962143   0.881961  -0.673337   0.118739  -5.668590
     3  C   -1.195340   0.881961   5.763468   0.419307  -0.141989   0.114850
     4  C   -0.004603  -0.673337   0.419307   6.507317   0.418569  -0.667784
     5  C   -1.194364   0.118739  -0.141989   0.418569   5.763543   0.877902
     6  C   -0.919816  -5.668590   0.114850  -0.667784   0.877902  11.961263
     7  F    0.556909  -0.272013  -0.050460   0.019830  -0.050703  -0.272774
     8  H   -0.185124   0.641110  -0.015373  -0.008581   0.018224  -0.110875
     9  H    0.021640  -0.067158   0.425103  -0.111017  -0.008508   0.075968
    10  H    0.027829  -0.018771  -0.059922   0.490293  -0.059999  -0.018566
    11  H    0.021693   0.076069  -0.008483  -0.111062   0.425235  -0.067424
    12  H   -0.184960  -0.110355   0.018181  -0.008605  -0.015492   0.640600
    13  O    0.041924  -0.013222  -0.000737  -0.001138  -0.000721  -0.013235
    14  C   -0.001095  -0.000948  -0.000081   0.000399  -0.000094  -0.001098
    15  H    0.003761  -0.001352  -0.000473   0.000167  -0.000475  -0.001361
    16  H   -0.003046   0.000942   0.000327   0.000000   0.000328   0.000946
    17  H   -0.069609   0.009552   0.010755   0.020797   0.010944   0.010094
    18  Cl   0.021093   0.010001  -0.003579  -0.022326  -0.003724   0.009797
               7          8          9         10         11         12
     1  C    0.556909  -0.185124   0.021640   0.027829   0.021693  -0.184960
     2  C   -0.272013   0.641110  -0.067158  -0.018771   0.076069  -0.110355
     3  C   -0.050460  -0.015373   0.425103  -0.059922  -0.008483   0.018181
     4  C    0.019830  -0.008581  -0.111017   0.490293  -0.111062  -0.008605
     5  C   -0.050703   0.018224  -0.008508  -0.059999   0.425235  -0.015492
     6  C   -0.272774  -0.110875   0.075968  -0.018566  -0.067424   0.640600
     7  F    9.315675  -0.030462  -0.000363   0.001189  -0.000361  -0.030401
     8  H   -0.030462   0.490991  -0.011806   0.000109   0.002867  -0.001048
     9  H   -0.000363  -0.011806   0.472132  -0.011655   0.000656   0.002867
    10  H    0.001189   0.000109  -0.011655   0.476542  -0.011661   0.000115
    11  H   -0.000361   0.002867   0.000656  -0.011661   0.472136  -0.011809
    12  H   -0.030401  -0.001048   0.002867   0.000115  -0.011809   0.490993
    13  O    0.006481   0.000267   0.000097  -0.000006   0.000097   0.000269
    14  C    0.002351  -0.000177  -0.000017   0.000008  -0.000017  -0.000174
    15  H   -0.000794  -0.000100  -0.000014   0.000003  -0.000014  -0.000102
    16  H   -0.000346   0.000041  -0.000001  -0.000003  -0.000001   0.000044
    17  H    0.026653  -0.001021  -0.000670  -0.000279  -0.000665  -0.001086
    18  Cl  -0.009052   0.003072   0.000835   0.000324   0.000830   0.003127
              13         14         15         16         17         18
     1  C    0.041924  -0.001095   0.003761  -0.003046  -0.069609   0.021093
     2  C   -0.013222  -0.000948  -0.001352   0.000942   0.009552   0.010001
     3  C   -0.000737  -0.000081  -0.000473   0.000327   0.010755  -0.003579
     4  C   -0.001138   0.000399   0.000167   0.000000   0.020797  -0.022326
     5  C   -0.000721  -0.000094  -0.000475   0.000328   0.010944  -0.003724
     6  C   -0.013235  -0.001098  -0.001361   0.000946   0.010094   0.009797
     7  F    0.006481   0.002351  -0.000794  -0.000346   0.026653  -0.009052
     8  H    0.000267  -0.000177  -0.000100   0.000041  -0.001021   0.003072
     9  H    0.000097  -0.000017  -0.000014  -0.000001  -0.000670   0.000835
    10  H   -0.000006   0.000008   0.000003  -0.000003  -0.000279   0.000324
    11  H    0.000097  -0.000017  -0.000014  -0.000001  -0.000665   0.000830
    12  H    0.000269  -0.000174  -0.000102   0.000044  -0.001086   0.003127
    13  O    8.217070   0.276258  -0.088005  -0.089445   0.008297  -0.006473
    14  C    0.276258   4.801957   0.412332   0.416478   0.000661  -0.003013
    15  H   -0.088005   0.412332   0.667311  -0.121385  -0.000296   0.003311
    16  H   -0.089445   0.416478  -0.121385   0.668903   0.001395  -0.000861
    17  H    0.008297   0.000661  -0.000296   0.001395   0.763965   0.113686
    18  Cl  -0.006473  -0.003013   0.003311  -0.000861   0.113686  16.976906
 Mulliken charges:
               1
     1  C   -0.342628
     2  C    0.048504
     3  C   -0.157515
     4  C   -0.268226
     5  C   -0.157418
     6  C    0.050105
     7  F   -0.211359
     8  H    0.207886
     9  H    0.211914
    10  H    0.184451
    11  H    0.211915
    12  H    0.207838
    13  O   -0.337780
    14  C    0.096269
    15  H    0.127487
    16  H    0.125683
    17  H    0.096826
    18  Cl  -0.093952
 Sum of Mulliken charges =  -0.00000
 Mulliken charges with hydrogens summed into heavy atoms:
               1
     1  C   -0.342628
     2  C    0.256390
     3  C    0.054399
     4  C   -0.083775
     5  C    0.054497
     6  C    0.257943
     7  F   -0.211359
    13  O   -0.337780
    14  C    0.349439
    18  Cl   0.002874
 APT charges:
               1
     1  C    0.773761
     2  C   -0.175256
     3  C   -0.001613
     4  C   -0.087576
     5  C   -0.001615
     6  C   -0.175260
     7  F   -0.720799
     8  H    0.093659
     9  H    0.066814
    10  H    0.062225
    11  H    0.066829
    12  H    0.093642
    13  O   -0.722050
    14  C    0.705534
    15  H    0.005322
    16  H    0.003825
    17  H    0.270572
    18  Cl  -0.258014
 Sum of APT charges =  -0.00000
 APT charges with hydrogens summed into heavy atoms:
               1
     1  C    0.773761
     2  C   -0.081597
     3  C    0.065202
     4  C   -0.025351
     5  C    0.065214
     6  C   -0.081618
     7  F   -0.720799
    13  O   -0.722050
    14  C    0.714682
    18  Cl   0.012557
 Electronic spatial extent (au):  <R**2>=           2633.1709
 Charge=              0.0000 electrons
 Dipole moment (field-independent basis, Debye):
    X=              0.5227    Y=             -1.2995    Z=              0.0061  Tot=              1.4007
 Quadrupole moment (field-independent basis, Debye-Ang):
   XX=            -33.4164   YY=            -69.0500   ZZ=            -58.7398
   XY=             -5.8167   XZ=              0.0192   YZ=             -0.0207
 Traceless Quadrupole moment (field-independent basis, Debye-Ang):
   XX=             20.3190   YY=            -15.3146   ZZ=             -5.0044
   XY=             -5.8167   XZ=              0.0192   YZ=             -0.0207
 Octapole moment (field-independent basis, Debye-Ang**2):
  XXX=            136.7148  YYY=             -4.4486  ZZZ=             -0.0189  XYY=             21.8582
  XXY=            -34.9861  XXZ=              0.0633  XZZ=             -1.8130  YZZ=             -3.7656
  YYZ=              0.0155  XYZ=              0.0019
 Hexadecapole moment (field-independent basis, Debye-Ang**3):
 XXXX=          -1572.6918 YYYY=           -644.6740 ZZZZ=           -252.3152 XXXY=           -211.7044
 XXXZ=              0.2344 YYYX=            -46.2174 YYYZ=              0.0555 ZZZX=             -0.0173
 ZZZY=             -0.0501 XXYY=           -492.8246 XXZZ=           -427.7646 YYZZ=           -162.6965
 XXYZ=             -0.1340 YYXZ=              0.0124 ZZXY=             -3.6497
 N-N= 5.565025655466D+02 E-N=-3.256383017286D+03  KE= 9.078092294199D+02
  Exact polarizability: 124.849  -4.688  72.843   0.014  -0.049 105.796
 Approx polarizability: 119.779  -5.356  70.549   0.014  -0.047 102.075
 D2PCM: PCM CHGder 2nd derivatives, FixD1E=F FixD2E=F DoIter=F DoCFld=F I1PDM=0
 Calling FoFJK, ICntrl=    100127 FMM=F ISym2X=0 I1Cent= 0 IOpClX= 0 NMat=1 NMatS=1 NMatT=0.
 ***** Axes restored to original set *****
 -------------------------------------------------------------------
 Center     Atomic                   Forces (Hartrees/Bohr)
 Number     Number              X              Y              Z
 -------------------------------------------------------------------
      1        6          -0.089417916   -0.000553345   -0.051627000
      2        6          -0.053596511    0.000105117    0.015086193
      3        6           0.002564683    0.000159191    0.037619540
      4        6           0.039527192   -0.000042788    0.022823854
      5        6           0.033864081    0.000158838   -0.016586176
      6        6          -0.013732902    0.000104980   -0.053958698
      7        9           0.024310577    0.000697005    0.014034768
      8        1          -0.065593781   -0.000015695    0.035995715
      9        1          -0.001663479    0.000008287    0.073829399
     10        1           0.064297217   -0.000010309    0.037121184
     11        1           0.063105769    0.000008924   -0.038355902
     12        1          -0.001624293   -0.000014747   -0.074803750
     13        8           0.016469848    0.000416335    0.009509719
     14        6           0.060017634    0.000047563    0.034977991
     15        1          -0.039110771    0.071368409   -0.022744829
     16        1          -0.039115878   -0.071340090   -0.022748174
     17        1          -0.116425865   -0.759538824   -0.067233326
     18       17           0.116124395    0.758441146    0.067059494
 -------------------------------------------------------------------
 Cartesian Forces:  Max     0.759538824 RMS     0.152621954
 -----------------------------------------------------------------------------------------------
                       Internal Coordinate Forces (Hartree/Bohr or radian)
  Cent   Atom   N1       Length/X         N2         Alpha/Y        N3         Beta/Z          J
 -----------------------------------------------------------------------------------------------
      1  C 
      2  C        1   0.037689(     1)
      3  C        2   0.154136(     2)      1   0.163437(    18)
      4  C        3   0.222473(     3)      2   0.416978(    19)      1   0.001026(    34)     0
      5  C        4   0.184787(     4)      3   0.452427(    20)      2   0.000773(    35)     0
      6  C        5   0.078763(     5)      4   0.253470(    21)      3   0.000223(    36)     0
      7  F        1  -0.025714(     6)      2  -0.000003(    22)      3   0.001146(    37)     0
      8  H        2   0.074804(     7)      3   0.003068(    23)      4  -0.000026(    38)     0
      9  H        3   0.073829(     8)      4   0.003144(    24)      5   0.000014(    39)     0
     10  H        4   0.074244(     9)      5  -0.000001(    25)      6  -0.000017(    40)     0
     11  H        5   0.073829(    10)      6  -0.003145(    26)      1   0.000015(    41)     0
     12  H        6   0.074804(    11)      1  -0.003069(    27)      2  -0.000024(    42)     0
     13  O        7   0.002009(    12)      1   0.000012(    28)      3  -0.000005(    43)     0
     14  C       13   0.021027(    13)      1   0.000104(    29)      2  -0.000000(    44)     0
     15  H       14   0.084429(    14)      1   0.006610(    30)      2   0.000118(    45)     0
     16  H       14   0.084407(    15)      1   0.006647(    31)      2  -0.000118(    46)     0
     17  H        7  -0.001021(    16)      1   0.001710(    32)      2  -0.000023(    47)     0
     18  Cl      17   0.770204(    17)      7  -0.000608(    33)      1  -0.000008(    48)     0
 -----------------------------------------------------------------------------------------------
 Internal  Forces:  Max     0.770204320 RMS     0.159481946

 GradGradGradGradGradGradGradGradGradGradGradGradGradGradGradGradGradGrad
 Berny optimization.
 Search for a local minimum.
 Step number   1 out of a maximum of   27
 All quantities printed in internal units (Hartrees-Bohrs-Radians)
 Second derivative matrix not updated -- analytic derivatives used.
 The second derivative matrix:
                          d1        d2        d3        d4        d5
           d1           0.89045
           d2          -0.02930   1.00806
           d3          -0.36399   0.41375   1.58081
           d4          -0.15358   0.02371   0.40170   0.99734
           d5           0.05430  -0.18087  -0.37856  -0.01351   0.95808
           d6           0.04608   0.04763   0.02927  -0.01681  -0.04453
           d7           0.00092   0.00213  -0.00041   0.00255   0.00229
           d8          -0.00059   0.00405   0.00477  -0.00017  -0.00035
           d9          -0.00088  -0.00092   0.00420   0.00509   0.00085
           d10          0.00316   0.00222  -0.00077   0.00161   0.00148
           d11         -0.01058  -0.00737   0.00346   0.01017   0.01179
           d12          0.00061   0.00072   0.00043  -0.00018  -0.00050
           d13         -0.00000  -0.00001  -0.00001  -0.00000  -0.00000
           d14          0.00004   0.00005   0.00003  -0.00001  -0.00003
           d15          0.00004   0.00005   0.00003  -0.00001  -0.00003
           d16         -0.00061  -0.00076  -0.00033   0.00028   0.00045
           d17          0.00008   0.00009   0.00007  -0.00001  -0.00007
                          d6        d7        d8        d9        d10
           d6           0.30785
           d7          -0.00013   0.57548
           d8           0.00099   0.00038   0.57470
           d9           0.00040   0.00018   0.00043   0.57393
           d10          0.00099   0.00010   0.00022   0.00043   0.57468
           d11         -0.00013   0.00009   0.00010   0.00018   0.00038
           d12         -0.00111  -0.00001   0.00004   0.00002   0.00004
           d13          0.00005  -0.00000  -0.00000  -0.00000  -0.00000
           d14         -0.00009  -0.00000   0.00000   0.00000   0.00000
           d15         -0.00009  -0.00000   0.00000   0.00000   0.00000
           d16          0.00226   0.00007  -0.00004  -0.00002  -0.00004
           d17         -0.00065   0.00003   0.00001   0.00001   0.00001
                          d11       d12       d13       d14       d15
           d11          0.57550
           d12         -0.00001   0.00478
           d13         -0.00000   0.00027   0.95655
           d14         -0.00000   0.00018   0.03175   0.57495
           d15         -0.00000   0.00015   0.03177   0.00153   0.57505
           d16          0.00007  -0.00036  -0.00001  -0.00001  -0.00001
           d17          0.00003   0.00002  -0.00007   0.00002   0.00001
                          d16       d17
           d16          0.00471
           d17          0.00282   2.45490
 ITU=  0
     Eigenvalues ---    0.00438   0.00508   0.29804   0.57129   0.57347
     Eigenvalues ---    0.57351   0.57409   0.57445   0.57501   0.57568
     Eigenvalues ---    0.58279   0.76873   0.81370   0.96179   1.08908
     Eigenvalues ---    2.19183   2.45490
 RFO step:  Lambda=-3.30687651D-01 EMin= 4.37728400D-03
 Linear search not attempted -- first point.
 Maximum step size (   0.300) exceeded in Quadratic search.
    -- Step size scaled by   0.710
 Variable       Old X    -DE/DX   Delta X   Delta X   Delta X     New X
                                 (Linear)    (Quad)   (Total)
    d1        2.45664   0.03769   0.00000   0.05464   0.05464   2.51128
    d2        2.45664   0.15414   0.00000   0.06902   0.06902   2.52566
    d3        2.45664   0.22247   0.00000   0.07556   0.07556   2.53221
    d4        2.45664   0.18479   0.00000   0.08044   0.08044   2.53708
    d5        2.45664   0.07876   0.00000   0.07192   0.07192   2.52856
    d6        2.64562  -0.02571   0.00000  -0.03395  -0.03395   2.61167
    d7        1.88973   0.07480   0.00000   0.05793   0.05793   1.94765
    d8        1.88973   0.07383   0.00000   0.05720   0.05720   1.94692
    d9        1.88973   0.07424   0.00000   0.05743   0.05743   1.94715
   d10        1.88973   0.07383   0.00000   0.05727   0.05727   1.94700
   d11        1.88973   0.07480   0.00000   0.05759   0.05759   1.94731
   d12        5.29123   0.00201   0.00000   0.00385   0.00385   5.29508
   d13        2.26767   0.02103   0.00000   0.00836   0.00836   2.27603
   d14        1.88973   0.08443   0.00000   0.06573   0.06573   1.95546
   d15        1.88973   0.08441   0.00000   0.06571   0.06571   1.95544
   d16        4.34637  -0.00102   0.00000  -0.00341  -0.00341   4.34296
   d17        1.70075   0.77020   0.00000   0.19619   0.19619   1.89694
         Item               Value     Threshold  Converged?
 Maximum Force            0.770204     0.002500     NO 
 RMS     Force            0.210210     0.001667     NO 
 Maximum Displacement     0.196190     0.010000     NO 
 RMS     Displacement     0.072761     0.006667     NO 
 Predicted change in Energy=-1.662806D-01
 GradGradGradGradGradGradGradGradGradGradGradGradGradGradGradGradGradGrad

 ---------------------------------------------------------------------------------------------------
                            Z-MATRIX (ANGSTROMS AND DEGREES)
   CD    Cent   Atom    N1       Length/X        N2       Alpha/Y        N3        Beta/Z          J
 ---------------------------------------------------------------------------------------------------
      1      1  C 
      2      2  C        1   1.328912(     1)
      3      3  C        2   1.336522(     2)      1  120.000(    18)
      4      4  C        3   1.339986(     3)      2  120.000(    19)      1    0.000(    34)      0
      5      5  C        4   1.342566(     4)      3  120.000(    20)      2    0.000(    35)      0
      6      6  C        5   1.338056(     5)      4  120.000(    21)      3    0.000(    36)      0
      7      7  F        1   1.382034(     6)      2  120.000(    22)      3  180.000(    37)      0
      8      8  H        2   1.030654(     7)      3  120.000(    23)      4  180.000(    38)      0
      9      9  H        3   1.030268(     8)      4  120.000(    24)      5  180.000(    39)      0
     10     10  H        4   1.030388(     9)      5  120.000(    25)      6  180.000(    40)      0
     11     11  H        5   1.030306(    10)      6  120.000(    26)      1  180.000(    41)      0
     12     12  H        6   1.030475(    11)      1  120.000(    27)      2  180.000(    42)      0
     13     13  O        7   2.802035(    12)      1  179.900(    28)      3  180.000(    43)      0
     14     14  C       13   1.204424(    13)      1  179.900(    29)      2  180.000(    44)      0
     15     15  H       14   1.034785(    14)      1  120.000(    30)      2   90.000(    45)      0
     16     16  H       14   1.034773(    15)      1  120.000(    31)      2  -90.000(    46)      0
     17     17  H        7   2.298196(    16)      1  100.000(    32)      2   90.000(    47)      0
     18     18  Cl      17   1.003819(    17)      7  160.000(    33)      1    0.000(    48)      0
 ---------------------------------------------------------------------------------------------------
                         Z-Matrix orientation:                         
 ---------------------------------------------------------------------
 Center     Atomic      Atomic             Coordinates (Angstroms)
 Number     Number       Type             X           Y           Z
 ---------------------------------------------------------------------
      1          6           0        0.000000    0.000000    0.000000
      2          6           0        0.000000    0.000000    1.328912
      3          6           0        1.157462    0.000000    1.997173
      4          6           0        2.317924    0.000000    1.327180
      5          6           0        2.317924    0.000000   -0.015386
      6          6           0        1.159133    0.000000   -0.684414
      7          9           0       -1.196877   -0.000000   -0.691017
      8          1           0       -0.892572   -0.000000    1.844239
      9          1           0        1.157462   -0.000000    3.027441
     10          1           0        3.210266   -0.000000    1.842374
     11          1           0        3.210195   -0.000000   -0.530539
     12          1           0        1.149064   -0.000000   -1.714840
     13          8           0       -3.621061   -0.000000   -2.096268
     14          6           0       -4.662364   -0.000000   -2.701517
     15          1           0       -5.110035    0.896150   -2.960911
     16          1           0       -5.110029   -0.896140   -2.960908
     17          1           0       -1.542488    2.263281   -0.890556
     18         17           0       -1.391530    3.251850   -0.803400
 ---------------------------------------------------------------------
                    Distance matrix (angstroms):
                    1          2          3          4          5
     1  C    0.000000
     2  C    1.328912   0.000000
     3  C    2.308337   1.336522   0.000000
     4  C    2.670988   2.317924   1.339986   0.000000
     5  C    2.317975   2.679535   2.323159   1.342566   0.000000
     6  C    1.346110   2.323160   2.681588   2.321488   1.338056
     7  F    1.382034   2.347899   3.573412   4.053017   3.579148
     8  H    2.048878   1.030654   2.055731   3.251866   3.710187
     9  H    3.241160   2.055412   1.030268   2.058533   3.256604
    10  H    3.701372   3.251069   2.058633   1.030388   2.060958
    11  H    3.253740   3.709840   3.256232   2.060890   1.030306
    12  H    2.064225   3.253425   3.712022   3.258852   2.062614
    13  O    4.184068   4.984370   6.292101   6.855037   6.292981
    14  C    5.388490   6.162953   7.479843   8.059455   7.479285
    15  H    5.973486   6.731874   8.041592   8.623536   8.040757
    16  H    5.973478   6.731867   8.041585   8.623529   8.040750
    17  H    2.880070   3.525301   4.555343   4.994354   4.559731
    18  Cl   3.627167   4.130090   4.991503   5.373449   4.995552
                    6          7          8          9         10
     6  C    0.000000
     7  F    2.356019   0.000000
     8  H    3.256314   2.553454   0.000000
     9  H    3.711855   4.401118   2.366983   0.000000
    10  H    3.254505   5.083403   4.102839   2.370314   0.000000
    11  H    2.056826   4.409993   4.740493   4.107668   2.372913
    12  H    1.030475   2.559619   4.103087   4.742288   4.111244
    13  O    4.984334   2.802035   4.792937   7.006188   7.885425
    14  C    6.161049   4.006458   5.905525   8.166476   9.089843
    15  H    6.729635   4.611758   6.455970   8.714641   9.648940
    16  H    6.729628   4.611750   6.455962   8.714634   9.648933
    17  H    3.530396   2.298196   3.608869   5.269048   5.931275
    18  Cl   4.134558   3.259609   4.222971   5.634468   6.225045
                   11         12         13         14         15
    11  H    0.000000
    12  H    2.377147   0.000000
    13  O    7.008393   4.785351   0.000000
    14  C    8.166414   5.894593   1.204424   0.000000
    15  H    8.714128   6.444540   1.941066   1.034785   0.000000
    16  H    8.714121   6.444533   1.941055   1.034773   1.792290
    17  H    5.276367   3.611972   3.301007   4.258596   4.345435
    18  Cl   5.641353   4.226094   4.149319   4.987557   4.902189
                   16         17         18
    16  H    0.000000
    17  H    5.195734   0.000000
    18  Cl   5.973935   1.003819   0.000000
 Stoichiometry    C7H8ClFO
 Framework group  C1[X(C7H8ClFO)]
 Deg. of freedom    48
 Full point group                 C1      NOp   1
 Largest Abelian subgroup         C1      NOp   1
 Largest concise Abelian subgroup C1      NOp   1
                         Standard orientation:                         
 ---------------------------------------------------------------------
 Center     Atomic      Atomic             Coordinates (Angstroms)
 Number     Number       Type             X           Y           Z
 ---------------------------------------------------------------------
      1          6           0       -0.822441   -0.583259   -0.007992
      2          6           0       -1.480385   -0.493576   -1.159111
      3          6           0       -2.805610   -0.320170   -1.159619
      4          6           0       -3.470843   -0.236745    0.000583
      5          6           0       -2.806139   -0.327349    1.163529
      6          6           0       -1.479393   -0.500954    1.164038
      7          9           0        0.547911   -0.762570   -0.007466
      8          1           0       -0.968719   -0.557744   -2.051483
      9          1           0       -3.315695   -0.250642   -2.052049
     10          1           0       -4.492522   -0.103058    0.000191
     11          1           0       -3.317632   -0.263203    2.055600
     12          1           0       -0.960579   -0.571609    2.051573
     13          8           0        3.326254   -1.126132   -0.001510
     14          6           0        4.520489   -1.282409    0.002458
     15          1           0        5.149776   -0.460969    0.006233
     16          1           0        4.917234   -2.238100    0.000689
     17          1           0        1.237259    1.429792   -0.000314
     18         17           0        1.192681    2.432617    0.002678
 ---------------------------------------------------------------------
 Rotational constants (GHZ):           1.4008189           0.4809962           0.4049636
 Standard basis: 6-311++G(d,p) (5D, 7F)
 There are   294 symmetry adapted cartesian basis functions of A   symmetry.
 There are   284 symmetry adapted basis functions of A   symmetry.
   284 basis functions,   449 primitive gaussians,   294 cartesian basis functions
    42 alpha electrons       42 beta electrons
       nuclear repulsion energy       545.6318531133 Hartrees.
 NAtoms=   18 NActive=   18 NUniq=   18 SFac= 1.00D+00 NAtFMM=   60 NAOKFM=F Big=F
 Integral buffers will be    131072 words long.
 Raffenetti 2 integral format.
 Two-electron integral symmetry is turned on.
 Force inversion solution in PCM.
 ------------------------------------------------------------------------------
 Polarizable Continuum Model (PCM)
 =================================
 Model                : PCM.
 Atomic radii         : UFF (Universal Force Field).
 Polarization charges : Total charges.
 Charge compensation  : None.
 Solution method      : Matrix inversion.
 Cavity type          : Scaled VdW (van der Waals Surface) (Alpha=1.100).
 Cavity algorithm     : GePol (No added spheres)
                        Default sphere list used, NSphG=   18.
                        Lebedev-Laikov grids with approx.  5.0 points / Ang**2.
                        Smoothing algorithm: York/Karplus (Gamma=1.0000).
                        Polarization charges: spherical gaussians, with
                                              point-specific exponents (IZeta= 3).
                        Self-potential: point-specific (ISelfS= 7).
                        Self-field    : sphere-specific E.n sum rule (ISelfD= 2).
 1st derivatives      : Analytical E(r).r(x)/FMM algorithm (CHGder, D1EAlg=3).
                        Cavity 1st derivative terms included.
 Solvent              : Water, Eps=  78.355300 Eps(inf)=   1.777849
 ------------------------------------------------------------------------------
 Spheres list:
 ISph  on   Nord     Re0    Alpha      Xe            Ye            Ze
    1   C      1    1.9255  1.100     -0.822441     -0.583259     -0.007992
    2   C      2    1.9255  1.100     -1.480385     -0.493576     -1.159111
    3   C      3    1.9255  1.100     -2.805610     -0.320170     -1.159619
    4   C      4    1.9255  1.100     -3.470843     -0.236745      0.000583
    5   C      5    1.9255  1.100     -2.806139     -0.327349      1.163529
    6   C      6    1.9255  1.100     -1.479393     -0.500954      1.164038
    7   F      7    1.6820  1.100      0.547911     -0.762570     -0.007466
    8   H      8    1.4430  1.100     -0.968719     -0.557744     -2.051483
    9   H      9    1.4430  1.100     -3.315695     -0.250642     -2.052049
   10   H     10    1.4430  1.100     -4.492522     -0.103058      0.000191
   11   H     11    1.4430  1.100     -3.317632     -0.263203      2.055600
   12   H     12    1.4430  1.100     -0.960579     -0.571609      2.051573
   13   O     13    1.7500  1.100      3.326254     -1.126132     -0.001510
   14   C     14    1.9255  1.100      4.520489     -1.282409      0.002458
   15   H     15    1.4430  1.100      5.149776     -0.460969      0.006233
   16   H     16    1.4430  1.100      4.917234     -2.238100      0.000689
   17   H     17    1.4430  1.100      1.237259      1.429792     -0.000314
   18  Cl     18    1.9735  1.100      1.192681      2.432617      0.002678
 ------------------------------------------------------------------------------
 One-electron integrals computed using PRISM.
 NBasis=   284 RedAO= T EigKep=  5.42D-06  NBF=   284
 NBsUse=   283 1.00D-06 EigRej=  7.31D-07 NBFU=   283
 Initial guess from the checkpoint file:  "model_H1.chk"
 B after Tr=    -0.000000    0.000000    0.000000
         Rot=    1.000000   -0.000428    0.000051    0.000411 Ang=  -0.07 deg.
 ExpMin= 3.60D-02 ExpMax= 1.06D+05 ExpMxC= 3.62D+03 IAcc=3 IRadAn=         5 AccDes= 0.00D+00
 Harris functional with IExCor= 1009 and IRadAn=       5 diagonalized for initial guess.
 HarFok:  IExCor= 1009 AccDes= 0.00D+00 IRadAn=         5 IDoV= 1 UseB2=F ITyADJ=14
 ICtDFT=  3500011 ScaDFX=  1.000000  1.000000  1.000000  1.000000
 FoFCou: FMM=F IPFlag=           0 FMFlag=      100000 FMFlg1=           0
         NFxFlg=           0 DoJE=T BraDBF=F KetDBF=T FulRan=T
         wScrn=  0.000000 ICntrl=       500 IOpCl=  0 I1Cent=   200000004 NGrid=           0
         NMat0=    1 NMatS0=      1 NMatT0=    0 NMatD0=    1 NMtDS0=    0 NMtDT0=    0
 Petite list used in FoFCou.
 Requested convergence on RMS density matrix=1.00D-08 within 128 cycles.
 Requested convergence on MAX density matrix=1.00D-06.
 Requested convergence on             energy=1.00D-06.
 No special actions if energy rises.
 Inv3:  Mode=1 IEnd=    10123707.
 Iteration    1 A*A^-1 deviation from unit magnitude is 4.55D-15 for   1820.
 Iteration    1 A*A^-1 deviation from orthogonality  is 1.94D-15 for   1826   1725.
 Iteration    1 A^-1*A deviation from unit magnitude is 4.66D-15 for   1822.
 Iteration    1 A^-1*A deviation from orthogonality  is 1.77D-15 for   1829   1706.
 Error on total polarization charges =  0.01415
 SCF Done:  E(RM062X) =  -906.625297304     A.U. after   13 cycles
            NFock= 13  Conv=0.45D-08     -V/T= 2.0004
 DoSCS=F DFT=T ScalE2(SS,OS)=  1.000000  1.000000
 Range of M.O.s used for correlation:     1   283
 NBasis=   284 NAE=    42 NBE=    42 NFC=     0 NFV=     0
 NROrb=    283 NOA=    42 NOB=    42 NVA=   241 NVB=   241

 **** Warning!!: The largest alpha MO coefficient is  0.12401911D+03

 Symmetrizing basis deriv contribution to polar:
 IMax=3 JMax=2 DiffMx= 0.00D+00
 D1PCM: PCM CHGder 1st derivatives, ID1Alg=3 FixD1E=F DoIter=F DoCFld=F I1PDM=0.
 Calling FoFJK, ICntrl=      2127 FMM=F ISym2X=0 I1Cent= 0 IOpClX= 0 NMat=1 NMatS=1 NMatT=0.
 ***** Axes restored to original set *****
 -------------------------------------------------------------------
 Center     Atomic                   Forces (Hartrees/Bohr)
 Number     Number              X              Y              Z
 -------------------------------------------------------------------
      1        6          -0.036450305   -0.000624960   -0.038932015
      2        6          -0.031560640    0.000157335    0.012480983
      3        6           0.007938661    0.000132474    0.013709111
      4        6           0.015664469   -0.000017220    0.008266190
      5        6           0.012192890    0.000135519   -0.002188499
      6        6          -0.015638489    0.000152310   -0.021472913
      7        9           0.017444676    0.001031520    0.010479757
      8        1          -0.038506996   -0.000021492    0.020307158
      9        1          -0.001315414    0.000011930    0.042906032
     10        1           0.037380965   -0.000009077    0.021482511
     11        1           0.036529998    0.000013848   -0.022583604
     12        1          -0.001779133   -0.000017573   -0.043355725
     13        8           0.006190374    0.000447981    0.003538795
     14        6           0.041088666    0.000071086    0.024017253
     15        1          -0.024441253    0.041071773   -0.014238402
     16        1          -0.024442181   -0.041064612   -0.014242608
     17        1          -0.060701207   -0.393938684   -0.035004536
     18       17           0.060404917    0.392467843    0.034830511
 -------------------------------------------------------------------
 Cartesian Forces:  Max     0.393938684 RMS     0.079517053
 -----------------------------------------------------------------------------------------------
                       Internal Coordinate Forces (Hartree/Bohr or radian)
  Cent   Atom   N1       Length/X         N2         Alpha/Y        N3         Beta/Z          J
 -----------------------------------------------------------------------------------------------
      1  C 
      2  C        1   0.028658(     1)
      3  C        2   0.076264(     2)      1   0.052102(    18)
      4  C        3   0.102966(     3)      2   0.172108(    19)      1   0.001253(    34)     0
      5  C        4   0.090494(     4)      3   0.196631(    20)      2   0.000961(    35)     0
      6  C        5   0.048402(     5)      4   0.118713(    21)      3   0.000334(    36)     0
      7  F        1  -0.018152(     6)      2  -0.000952(    22)      3   0.001421(    37)     0
      8  H        2   0.043502(     7)      3   0.003247(    23)      4  -0.000036(    38)     0
      9  H        3   0.042906(     8)      4   0.002561(    24)      5   0.000020(    39)     0
     10  H        4   0.043114(     9)      5  -0.000168(    25)      6  -0.000015(    40)     0
     11  H        5   0.042928(    10)      6  -0.002517(    26)      1   0.000023(    41)     0
     12  H        6   0.043371(    11)      1  -0.002639(    27)      2  -0.000030(    42)     0
     13  O        7   0.001852(    12)      1   0.000023(    28)      3  -0.000005(    43)     0
     14  C       13   0.008982(    13)      1   0.000102(    29)      2  -0.000000(    44)     0
     15  H       14   0.049712(    14)      1   0.007745(    30)      2   0.000112(    45)     0
     16  H       14   0.049707(    15)      1   0.007757(    31)      2  -0.000117(    46)     0
     17  H        7  -0.001389(    16)      1   0.001598(    32)      2   0.000083(    47)     0
     18  Cl      17   0.398613(    17)      7  -0.000980(    33)      1   0.000025(    48)     0
 -----------------------------------------------------------------------------------------------
 Internal  Forces:  Max     0.398613419 RMS     0.077269787

 GradGradGradGradGradGradGradGradGradGradGradGradGradGradGradGradGradGrad
 Berny optimization.
 Search for a local minimum.
 Step number   2 out of a maximum of   27
 All quantities printed in internal units (Hartrees-Bohrs-Radians)
 Update second derivatives using D2CorN and points    1    2
 DE= -1.75D-01 DEPred=-1.66D-01 R= 1.05D+00
 TightC=F SS=  1.41D+00  RLast= 3.00D-01 DXNew= 5.0454D-01 9.0000D-01
 Trust test= 1.05D+00 RLast= 3.00D-01 DXMaxT set to 5.05D-01
 The second derivative matrix:
                          d1        d2        d3        d4        d5
           d1           0.89066
           d2          -0.03180   1.00140
           d3          -0.36790   0.40498   1.56959
           d4          -0.15653   0.01590   0.39142   0.98820
           d5           0.05391  -0.18500  -0.38464  -0.01838   0.95668
           d6           0.04584   0.04906   0.03157  -0.01512  -0.04442
           d7           0.00023  -0.00167  -0.00582  -0.00192   0.00068
           d8          -0.00125   0.00031  -0.00055  -0.00456  -0.00192
           d9          -0.00155  -0.00467  -0.00114   0.00068  -0.00073
           d10          0.00250  -0.00152  -0.00609  -0.00278  -0.00009
           d11         -0.01126  -0.01115  -0.00191   0.00573   0.01019
           d12          0.00062   0.00054   0.00014  -0.00040  -0.00054
           d13         -0.00002  -0.00046  -0.00067  -0.00053  -0.00013
           d14         -0.00088  -0.00445  -0.00630  -0.00529  -0.00205
           d15         -0.00088  -0.00445  -0.00631  -0.00530  -0.00206
           d16         -0.00063  -0.00061  -0.00009   0.00046   0.00047
           d17         -0.03294  -0.05157  -0.06071  -0.06035  -0.04595
                          d6        d7        d8        d9        d10
           d6           0.30806
           d7           0.00019   0.57379
           d8           0.00130  -0.00127   0.57308
           d9           0.00071  -0.00148  -0.00120   0.57229
           d10          0.00130  -0.00155  -0.00140  -0.00120   0.57306
           d11          0.00019  -0.00158  -0.00154  -0.00147  -0.00126
           d12         -0.00112  -0.00006  -0.00002  -0.00003  -0.00002
           d13          0.00004  -0.00016  -0.00016  -0.00016  -0.00016
           d14          0.00037  -0.00207  -0.00203  -0.00204  -0.00203
           d15          0.00036  -0.00207  -0.00203  -0.00204  -0.00203
           d16          0.00228   0.00011  -0.00000   0.00002  -0.00000
           d17          0.01952  -0.03825  -0.03775  -0.03790  -0.03779
                          d11       d12       d13       d14       d15
           d11          0.57383
           d12         -0.00006   0.00478
           d13         -0.00016   0.00027   0.95654
           d14         -0.00206   0.00011   0.03155   0.57242
           d15         -0.00206   0.00007   0.03157  -0.00100   0.57252
           d16          0.00011  -0.00036  -0.00001   0.00005   0.00004
           d17         -0.03802  -0.00233  -0.00530  -0.04394  -0.04394
                          d16       d17
           d16          0.00471
           d17          0.00487   2.21497
 ITU=  1  0
 Linear search step of   0.600 exceeds DXMaxT=   0.505 but not scaled.
 Quartic linear search produced a step of  2.00000.
 Variable       Old X    -DE/DX   Delta X   Delta X   Delta X     New X
                                 (Linear)    (Quad)   (Total)
    d1        2.51128   0.02866   0.10927   0.00000   0.10927   2.62055
    d2        2.52566   0.07626   0.13803   0.00000   0.13803   2.66369
    d3        2.53221   0.10297   0.15113   0.00000   0.15113   2.68333
    d4        2.53708   0.09049   0.16088   0.00000   0.16088   2.69796
    d5        2.52856   0.04840   0.14383   0.00000   0.14383   2.67239
    d6        2.61167  -0.01815  -0.06790   0.00000  -0.06790   2.54377
    d7        1.94765   0.04350   0.11585   0.00000   0.11585   2.06351
    d8        1.94692   0.04291   0.11440   0.00000   0.11440   2.06132
    d9        1.94715   0.04311   0.11485   0.00000   0.11485   2.06200
   d10        1.94700   0.04293   0.11454   0.00000   0.11454   2.06154
   d11        1.94731   0.04337   0.11518   0.00000   0.11518   2.06249
   d12        5.29508   0.00185   0.00769   0.00000   0.00769   5.30277
   d13        2.27603   0.00898   0.01672   0.00000   0.01672   2.29275
   d14        1.95546   0.04971   0.13147   0.00000   0.13147   2.08693
   d15        1.95544   0.04971   0.13142   0.00000   0.13142   2.08686
   d16        4.34296  -0.00139  -0.00682   0.00000  -0.00682   4.33614
   d17        1.89694   0.39861   0.39238   0.00000   0.39238   2.28932
         Item               Value     Threshold  Converged?
 Maximum Force            0.398613     0.002500     NO 
 RMS     Force            0.108827     0.001667     NO 
 Maximum Displacement     0.392381     0.010000     NO 
 RMS     Displacement     0.145521     0.006667     NO 
 Predicted change in Energy=-2.355944D-02
 GradGradGradGradGradGradGradGradGradGradGradGradGradGradGradGradGradGrad

 ---------------------------------------------------------------------------------------------------
                            Z-MATRIX (ANGSTROMS AND DEGREES)
   CD    Cent   Atom    N1       Length/X        N2       Alpha/Y        N3        Beta/Z          J
 ---------------------------------------------------------------------------------------------------
      1      1  C 
      2      2  C        1   1.386737(     1)
      3      3  C        2   1.409565(     2)      1  120.000(    18)
      4      4  C        3   1.419958(     3)      2  120.000(    19)      1    0.000(    34)      0
      5      5  C        4   1.427698(     4)      3  120.000(    20)      2    0.000(    35)      0
      6      6  C        5   1.414168(     5)      4  120.000(    21)      3    0.000(    36)      0
      7      7  F        1   1.346103(     6)      2  120.000(    22)      3  180.000(    37)      0
      8      8  H        2   1.091961(     7)      3  120.000(    23)      4  180.000(    38)      0
      9      9  H        3   1.090804(     8)      4  120.000(    24)      5  180.000(    39)      0
     10     10  H        4   1.091165(     9)      5  120.000(    25)      6  180.000(    40)      0
     11     11  H        5   1.090919(    10)      6  120.000(    26)      1  180.000(    41)      0
     12     12  H        6   1.091424(    11)      1  120.000(    27)      2  180.000(    42)      0
     13     13  O        7   2.806104(    12)      1  179.900(    28)      3  180.000(    43)      0
     14     14  C       13   1.213272(    13)      1  179.900(    29)      2  180.000(    44)      0
     15     15  H       14   1.104355(    14)      1  120.000(    30)      2   90.000(    45)      0
     16     16  H       14   1.104319(    15)      1  120.000(    31)      2  -90.000(    46)      0
     17     17  H        7   2.294588(    16)      1  100.000(    32)      2   90.000(    47)      0
     18     18  Cl      17   1.211458(    17)      7  160.000(    33)      1    0.000(    48)      0
 ---------------------------------------------------------------------------------------------------
                         Z-Matrix orientation:                         
 ---------------------------------------------------------------------
 Center     Atomic      Atomic             Coordinates (Angstroms)
 Number     Number       Type             X           Y           Z
 ---------------------------------------------------------------------
      1          6           0        0.000000    0.000000    0.000000
      2          6           0        0.000000    0.000000    1.386737
      3          6           0        1.220719    0.000000    2.091519
      4          6           0        2.450439    0.000000    1.381540
      5          6           0        2.450439    0.000000   -0.046158
      6          6           0        1.225734    0.000000   -0.753242
      7          9           0       -1.165759   -0.000000   -0.673051
      8          1           0       -0.945666   -0.000000    1.932717
      9          1           0        1.220719   -0.000000    3.182323
     10          1           0        3.395416   -0.000000    1.927123
     11          1           0        3.395203   -0.000000   -0.591618
     12          1           0        1.195799   -0.000000   -1.844256
     13          8           0       -3.593464   -0.000000   -2.080343
     14          6           0       -4.642410   -0.000000   -2.690049
     15          1           0       -5.120174    0.956400   -2.966891
     16          1           0       -5.120159   -0.956368   -2.966881
     17          1           0       -1.510828    2.259728   -0.872277
     18         17           0       -1.328644    3.452782   -0.767093
 ---------------------------------------------------------------------
                    Distance matrix (angstroms):
                    1          2          3          4          5
     1  C    0.000000
     2  C    1.386737   0.000000
     3  C    2.421695   1.409565   0.000000
     4  C    2.813060   2.450445   1.419958   0.000000
     5  C    2.450874   2.838634   2.466146   1.427698   0.000000
     6  C    1.438679   2.466158   2.844766   2.461138   1.414168
     7  F    1.346103   2.366796   3.652141   4.159115   3.670134
     8  H    2.151669   1.091961   2.172198   3.440542   3.930582
     9  H    3.408421   2.171241   1.090804   2.180603   3.454751
    10  H    3.904184   3.438149   2.180901   1.091165   2.187880
    11  H    3.446363   3.929541   3.453636   2.187677   1.090919
    12  H    2.198002   3.445177   3.935854   3.461197   2.192551
    13  O    4.152206   4.993358   6.370306   6.965157   6.377043
    14  C    5.365476   6.178362   7.565691   8.178408   7.569588
    15  H    5.994441   6.788590   8.167567   8.782810   8.170653
    16  H    5.994418   6.788568   8.167545   8.782788   8.170631
    17  H    2.854792   3.534418   4.620802   5.087013   4.634704
    18  Cl   3.778284   4.280885   5.156803   5.551558   5.169422
                    6          7          8          9         10
     6  C    0.000000
     7  F    2.392837   0.000000
     8  H    3.453890   2.615047   0.000000
     9  H    3.935568   4.534224   2.500948   0.000000
    10  H    3.448460   5.250259   4.341085   2.510943   0.000000
    11  H    2.175481   4.561689   5.021495   4.355572   2.518740
    12  H    1.091424   2.636034   4.341819   5.026640   4.365960
    13  O    4.998587   2.806104   4.807857   7.132462   8.056316
    14  C    6.179509   4.019376   5.919112   8.298255   9.269569
    15  H    6.788630   4.670524   6.507486   8.884507   9.868199
    16  H    6.788607   4.670500   6.507465   8.884486   9.868177
    17  H    3.550959   2.294588   3.646062   5.385861   6.083933
    18  Cl   4.294967   3.457901   4.399699   5.832567   6.441835
                   11         12         13         14         15
    11  H    0.000000
    12  H    2.531103   0.000000
    13  O    7.145472   4.795078   0.000000
    14  C    8.307023   5.899156   1.213272   0.000000
    15  H    8.892034   6.485871   2.007862   1.104355   0.000000
    16  H    8.892013   6.485850   2.007831   1.104319   1.912768
    17  H    5.408722   3.657450   3.301995   4.268193   4.371894
    18  Cl   5.853821   4.410759   4.333098   5.157568   5.044476
                   16         17         18
    16  H    0.000000
    17  H    5.268578   0.000000
    18  Cl   6.217335   1.211458   0.000000
 Stoichiometry    C7H8ClFO
 Framework group  C1[X(C7H8ClFO)]
 Deg. of freedom    48
 Full point group                 C1      NOp   1
 Largest Abelian subgroup         C1      NOp   1
 Largest concise Abelian subgroup C1      NOp   1
                         Standard orientation:                         
 ---------------------------------------------------------------------
 Center     Atomic      Atomic             Coordinates (Angstroms)
 Number     Number       Type             X           Y           Z
 ---------------------------------------------------------------------
      1          6           0       -0.775982   -0.625036   -0.021061
      2          6           0       -1.457754   -0.523011   -1.224314
      3          6           0       -2.853985   -0.329649   -1.229058
      4          6           0       -3.562407   -0.239329   -0.001758
      5          6           0       -2.860496   -0.344368    1.237036
      6          6           0       -1.459705   -0.538362    1.241795
      7          9           0        0.557388   -0.809693   -0.016531
      8          1           0       -0.912971   -0.592467   -2.168118
      9          1           0       -3.390266   -0.249396   -2.175533
     10          1           0       -4.643250   -0.089645   -0.005431
     11          1           0       -3.404759   -0.274978    2.179940
     12          1           0       -0.897580   -0.622100    2.173573
     13          8           0        3.336923   -1.194658   -0.002189
     14          6           0        4.538698   -1.361113    0.005443
     15          1           0        5.216824   -0.489523    0.014171
     16          1           0        4.954459   -2.384173    0.002170
     17          1           0        1.262005    1.373976   -0.001012
     18         17           0        1.217262    2.584589    0.005766
 ---------------------------------------------------------------------
 Rotational constants (GHZ):           1.2434589           0.4670202           0.3874239
 Standard basis: 6-311++G(d,p) (5D, 7F)
 There are   294 symmetry adapted cartesian basis functions of A   symmetry.
 There are   284 symmetry adapted basis functions of A   symmetry.
   284 basis functions,   449 primitive gaussians,   294 cartesian basis functions
    42 alpha electrons       42 beta electrons
       nuclear repulsion energy       525.7942805575 Hartrees.
 NAtoms=   18 NActive=   18 NUniq=   18 SFac= 1.00D+00 NAtFMM=   60 NAOKFM=F Big=F
 Integral buffers will be    131072 words long.
[...]
     10          1           0       -4.727637   -0.329689    0.000790
     11          1           0       -3.491704   -0.432578    2.146769
     12          1           0       -0.998177   -0.624688    2.135560
     13          8           0        4.058152   -1.006703   -0.003089
     14          6           0        5.259409   -1.099283    0.000209
     15          1           0        5.881263   -0.191315    0.004330
     16          1           0        5.734834   -2.091855   -0.002444
     17          1           0        0.975194    1.268195   -0.001268
     18         17           0        0.849674    2.549829    0.003301
 ---------------------------------------------------------------------
 Rotational constants (GHZ):           1.3184581           0.3983906           0.3425269

 **********************************************************************

            Population analysis using the SCF Density.

 **********************************************************************

 Orbital symmetries:
       Occupied  (A) (A) (A) (A) (A) (A) (A) (A) (A) (A) (A) (A)
                 (A) (A) (A) (A) (A) (A) (A) (A) (A) (A) (A) (A)
                 (A) (A) (A) (A) (A) (A) (A) (A) (A) (A) (A) (A)
                 (A) (A) (A) (A) (A) (A)
       Virtual   (A) (A) (A) (A) (A) (A) (A) (A) (A) (A) (A) (A)
                 (A) (A) (A) (A) (A) (A) (A) (A) (A) (A) (A) (A)
                 (A) (A) (A) (A) (A) (A) (A) (A) (A) (A) (A) (A)
                 (A) (A) (A) (A) (A) (A) (A) (A) (A) (A) (A) (A)
                 (A) (A) (A) (A) (A) (A) (A) (A) (A) (A) (A) (A)
                 (A) (A) (A) (A) (A) (A) (A) (A) (A) (A) (A) (A)
                 (A) (A) (A) (A) (A) (A) (A) (A) (A) (A) (A) (A)
                 (A) (A) (A) (A) (A) (A) (A) (A) (A) (A) (A) (A)
                 (A) (A) (A) (A) (A) (A) (A) (A) (A) (A) (A) (A)
                 (A) (A) (A) (A) (A) (A) (A) (A) (A) (A) (A) (A)
                 (A) (A) (A) (A) (A) (A) (A) (A) (A) (A) (A) (A)
                 (A) (A) (A) (A) (A) (A) (A) (A) (A) (A) (A) (A)
                 (A) (A) (A) (A) (A) (A) (A) (A) (A) (A) (A) (A)
                 (A) (A) (A) (A) (A) (A) (A) (A) (A) (A) (A) (A)
                 (A) (A) (A) (A) (A) (A) (A) (A) (A) (A) (A) (A)
                 (A) (A) (A) (A) (A) (A) (A) (A) (A) (A) (A) (A)
                 (A) (A) (A) (A) (A) (A) (A) (A) (A) (A) (A) (A)
                 (A) (A) (A) (A) (A) (A) (A) (A) (A) (A) (A) (A)
                 (A) (A) (A) (A) (A) (A) (A) (A) (A) (A) (A) (A)
                 (A) (A) (A) (A) (A) (A) (A) (A) (A) (A) (A) (A)
                 (A) (A)
 The electronic state is 1-A.
 Alpha  occ. eigenvalues -- -102.67885 -25.27464 -19.64638 -10.64170 -10.63944
 Alpha  occ. eigenvalues --  -10.56170 -10.56091 -10.55917 -10.55835 -10.55318
 Alpha  occ. eigenvalues --   -9.82205  -7.54688  -7.54073  -7.54071  -1.39199
 Alpha  occ. eigenvalues --   -1.19315  -0.98194  -0.94138  -0.86497  -0.86038
 Alpha  occ. eigenvalues --   -0.72296  -0.72009  -0.71585  -0.64276  -0.59709
 Alpha  occ. eigenvalues --   -0.58847  -0.58343  -0.58202  -0.54051  -0.52685
 Alpha  occ. eigenvalues --   -0.52451  -0.50772  -0.49621  -0.47844  -0.45043
 Alpha  occ. eigenvalues --   -0.44016  -0.41813  -0.39960  -0.39948  -0.34945
 Alpha  occ. eigenvalues --   -0.32664  -0.31718
 Alpha virt. eigenvalues --   -0.00781  -0.00233   0.00256   0.00773   0.01131
 Alpha virt. eigenvalues --    0.01448   0.01959   0.02443   0.03417   0.03668
 Alpha virt. eigenvalues --    0.04198   0.05894   0.06519   0.06788   0.07472
 Alpha virt. eigenvalues --    0.07927   0.08356   0.09033   0.10417   0.10852
 Alpha virt. eigenvalues --    0.11320   0.11483   0.12023   0.12944   0.13220
 Alpha virt. eigenvalues --    0.13545   0.13629   0.13759   0.14304   0.14503
 Alpha virt. eigenvalues --    0.15119   0.15675   0.15946   0.16526   0.16757
 Alpha virt. eigenvalues --    0.16812   0.17089   0.18277   0.19428   0.19441
 Alpha virt. eigenvalues --    0.20772   0.21826   0.22346   0.22923   0.23214
 Alpha virt. eigenvalues --    0.25119   0.25444   0.27285   0.28115   0.29767
 Alpha virt. eigenvalues --    0.29922   0.30352   0.30731   0.31840   0.32688
 Alpha virt. eigenvalues --    0.32921   0.33926   0.37020   0.38179   0.39096
 Alpha virt. eigenvalues --    0.40063   0.40724   0.41106   0.41984   0.45840
 Alpha virt. eigenvalues --    0.46747   0.48821   0.48929   0.51197   0.52279
 Alpha virt. eigenvalues --    0.52976   0.54097   0.54623   0.56555   0.57542
 Alpha virt. eigenvalues --    0.57841   0.58180   0.58487   0.59553   0.60061
 Alpha virt. eigenvalues --    0.61156   0.63236   0.63463   0.64952   0.66933
 Alpha virt. eigenvalues --    0.68084   0.69865   0.70494   0.71686   0.74318
 Alpha virt. eigenvalues --    0.76699   0.77570   0.80826   0.80927   0.82144
 Alpha virt. eigenvalues --    0.84066   0.88065   0.88158   0.89890   0.91009
 Alpha virt. eigenvalues --    0.91351   0.92092   0.92554   0.94065   0.95324
 Alpha virt. eigenvalues --    0.97188   0.97761   1.00870   1.02548   1.04362
 Alpha virt. eigenvalues --    1.04713   1.05106   1.06609   1.08583   1.12045
 Alpha virt. eigenvalues --    1.12112   1.14065   1.14638   1.17176   1.18040
 Alpha virt. eigenvalues --    1.22020   1.23280   1.32416   1.33672   1.40038
 Alpha virt. eigenvalues --    1.44851   1.47065   1.48624   1.48950   1.51082
 Alpha virt. eigenvalues --    1.51565   1.52340   1.55352   1.55816   1.59984
 Alpha virt. eigenvalues --    1.60688   1.60916   1.61177   1.62755   1.68031
 Alpha virt. eigenvalues --    1.68418   1.68801   1.70382   1.73793   1.77008
 Alpha virt. eigenvalues --    1.77316   1.78014   1.79901   1.86174   1.86339
 Alpha virt. eigenvalues --    1.90229   1.91100   1.94456   1.95024   1.96126
 Alpha virt. eigenvalues --    1.98716   1.99103   2.01109   2.04400   2.06402
 Alpha virt. eigenvalues --    2.09914   2.10024   2.17252   2.17598   2.22565
 Alpha virt. eigenvalues --    2.29006   2.30423   2.30683   2.33440   2.35138
 Alpha virt. eigenvalues --    2.43693   2.43888   2.44771   2.47197   2.48624
 Alpha virt. eigenvalues --    2.50516   2.52360   2.52749   2.61039   2.64694
 Alpha virt. eigenvalues --    2.66210   2.69438   2.71976   2.72871   2.73022
 Alpha virt. eigenvalues --    2.73556   2.76409   2.76749   2.79778   2.84296
 Alpha virt. eigenvalues --    2.85129   2.85509   2.88428   2.94058   2.94215
 Alpha virt. eigenvalues --    2.94222   2.97377   2.98068   3.13596   3.18298
 Alpha virt. eigenvalues --    3.24886   3.38501   3.39262   3.42207   3.47846
 Alpha virt. eigenvalues --    3.52893   3.55329   3.56075   3.66263   3.74363
 Alpha virt. eigenvalues --    3.78711   3.86306   3.93421   3.95220   4.02813
 Alpha virt. eigenvalues --    4.05901   4.08918   4.16232   4.19049   4.20020
 Alpha virt. eigenvalues --    4.85575   4.94284   5.09531   5.20760   5.77102
 Alpha virt. eigenvalues --    6.50996   6.58270   6.87882   9.94966  23.66075
 Alpha virt. eigenvalues --   23.99213  24.00863  24.04991  24.15331  24.16820
 Alpha virt. eigenvalues --   24.27441  25.90800  26.01231  26.14789  50.03520
 Alpha virt. eigenvalues --   66.94309 216.04607
          Condensed to atoms (all electrons):
               1          2          3          4          5          6
     1  C   12.897089  -5.159897   3.289766  -3.339031   3.211401  -4.593975
     2  C   -5.159897  13.025074  -3.497545   3.061044  -3.300627   1.351269
     3  C    3.289766  -3.497545   9.448249  -2.903579   3.165644  -3.282566
     4  C   -3.339031   3.061044  -2.903579   8.789192  -2.798108   2.909053
     5  C    3.211401  -3.300627   3.165644  -2.798108   9.201628  -3.260637
     6  C   -4.593975   1.351269  -3.282566   2.909053  -3.260637  12.381604
     7  F    0.866107  -0.519328   0.122331  -0.088733   0.120365  -0.502555
     8  H   -0.268528   0.651645  -0.140252   0.092573  -0.071814   0.044137
     9  H    0.077987  -0.075333   0.393503  -0.080915   0.029097  -0.010816
    10  H   -0.015526   0.013271  -0.034182   0.388004  -0.032645   0.013384
    11  H    0.068708  -0.008943   0.026574  -0.074131   0.388003  -0.067679
    12  H   -0.253064   0.047411  -0.073901   0.089319  -0.135712   0.633861
    13  O    0.010008  -0.002362  -0.000474  -0.000092  -0.000450  -0.002605
    14  C    0.002090  -0.002099   0.000720  -0.000269   0.000712  -0.001764
    15  H   -0.000374   0.000274  -0.000152   0.000080  -0.000150   0.000240
    16  H   -0.000726   0.000293  -0.000045   0.000042  -0.000046   0.000266
    17  H   -0.041118   0.038189  -0.037839   0.040488  -0.037176   0.036413
    18  Cl   0.142607  -0.087203   0.053508  -0.054281   0.052347  -0.083411
               7          8          9         10         11         12
     1  C    0.866107  -0.268528   0.077987  -0.015526   0.068708  -0.253064
     2  C   -0.519328   0.651645  -0.075333   0.013271  -0.008943   0.047411
     3  C    0.122331  -0.140252   0.393503  -0.034182   0.026574  -0.073901
     4  C   -0.088733   0.092573  -0.080915   0.388004  -0.074131   0.089319
     5  C    0.120365  -0.071814   0.029097  -0.032645   0.388003  -0.135712
     6  C   -0.502555   0.044137  -0.010816   0.013384  -0.067679   0.633861
     7  F    9.195039  -0.027544   0.001791  -0.000817   0.001599  -0.027405
     8  H   -0.027544   0.461426  -0.005931   0.001689   0.000002   0.002589
     9  H    0.001791  -0.005931   0.432468   0.000208   0.000553  -0.000072
    10  H   -0.000817   0.001689   0.000208   0.435331   0.000468   0.001615
    11  H    0.001599   0.000002   0.000553   0.000468   0.431659  -0.004951
    12  H   -0.027405   0.002589  -0.000072   0.001615  -0.004951   0.459083
    13  O    0.003005   0.000698  -0.000001  -0.000001  -0.000002   0.000734
    14  C   -0.000110  -0.000345   0.000011  -0.000002   0.000010  -0.000351
    15  H   -0.000121   0.000025  -0.000004   0.000001  -0.000004   0.000025
    16  H   -0.000063   0.000013  -0.000002   0.000000  -0.000002   0.000013
    17  H    0.014387  -0.000139  -0.001380   0.000403  -0.001328  -0.000215
    18  Cl  -0.012522  -0.001790   0.001756  -0.000490   0.001678  -0.001601
              13         14         15         16         17         18
     1  C    0.010008   0.002090  -0.000374  -0.000726  -0.041118   0.142607
     2  C   -0.002362  -0.002099   0.000274   0.000293   0.038189  -0.087203
     3  C   -0.000474   0.000720  -0.000152  -0.000045  -0.037839   0.053508
     4  C   -0.000092  -0.000269   0.000080   0.000042   0.040488  -0.054281
     5  C   -0.000450   0.000712  -0.000150  -0.000046  -0.037176   0.052347
     6  C   -0.002605  -0.001764   0.000240   0.000266   0.036413  -0.083411
     7  F    0.003005  -0.000110  -0.000121  -0.000063   0.014387  -0.012522
     8  H    0.000698  -0.000345   0.000025   0.000013  -0.000139  -0.001790
     9  H   -0.000001   0.000011  -0.000004  -0.000002  -0.001380   0.001756
    10  H   -0.000001  -0.000002   0.000001   0.000000   0.000403  -0.000490
    11  H   -0.000002   0.000010  -0.000004  -0.000002  -0.001328   0.001678
    12  H    0.000734  -0.000351   0.000025   0.000013  -0.000215  -0.001601
    13  O    8.143509   0.312206  -0.080369  -0.082555   0.005331  -0.002269
    14  C    0.312206   4.856228   0.396219   0.398707  -0.001245  -0.000362
    15  H   -0.080369   0.396219   0.643586  -0.097823   0.000189   0.000510
    16  H   -0.082555   0.398707  -0.097823   0.645647   0.000349  -0.000050
    17  H    0.005331  -0.001245   0.000189   0.000349   0.609900   0.255250
    18  Cl  -0.002269  -0.000362   0.000510  -0.000050   0.255250  16.862801
 Mulliken charges:
               1
     1  C   -0.893523
     2  C    0.464865
     3  C   -0.529761
     4  C   -0.030654
     5  C   -0.531832
     6  C    0.435779
     7  F   -0.145424
     8  H    0.261546
     9  H    0.237080
    10  H    0.229288
    11  H    0.237786
    12  H    0.262621
    13  O   -0.304310
    14  C    0.039645
    15  H    0.137848
    16  H    0.135982
    17  H    0.119542
    18  Cl  -0.126478
 Sum of Mulliken charges =  -0.00000
 Mulliken charges with hydrogens summed into heavy atoms:
               1
     1  C   -0.893523
     2  C    0.726411
     3  C   -0.292681
     4  C    0.198634
     5  C   -0.294046
     6  C    0.698400
     7  F   -0.145424
    13  O   -0.304310
    14  C    0.313475
    18  Cl  -0.006937
 APT charges:
               1
     1  C   -0.685165
     2  C   -0.290849
     3  C   -0.571367
     4  C   -0.628410
     5  C   -0.578159
     6  C   -0.305945
     7  F   -0.150707
     8  H    0.379313
     9  H    0.759258
    10  H    0.926477
    11  H    0.760342
    12  H    0.373411
    13  O   -1.115633
    14  C   -0.148464
    15  H    0.545691
    16  H    0.740958
    17  H   -0.085396
    18  Cl   0.074645
 Sum of APT charges =  -0.00000
 APT charges with hydrogens summed into heavy atoms:
               1
     1  C   -0.685165
     2  C    0.088464
     3  C    0.187891
     4  C    0.298067
     5  C    0.182183
     6  C    0.067466
     7  F   -0.150707
    13  O   -1.115633
    14  C    1.138185
    18  Cl  -0.010751
 Electronic spatial extent (au):  <R**2>=           3151.3651
 Charge=             -0.0000 electrons
 Dipole moment (field-independent basis, Debye):
    X=              0.7906    Y=             -1.9280    Z=             -0.0137  Tot=              2.0838
 Quadrupole moment (field-independent basis, Debye-Ang):
   XX=            -28.5320   YY=            -73.5024   ZZ=            -58.9371
   XY=             -4.9018   XZ=              0.1464   YZ=             -0.0503
 Traceless Quadrupole moment (field-independent basis, Debye-Ang):
   XX=             25.1252   YY=            -19.8453   ZZ=             -5.2799
   XY=             -4.9018   XZ=              0.1464   YZ=             -0.0503
 Octapole moment (field-independent basis, Debye-Ang**2):
  XXX=            189.1271  YYY=             -5.2579  ZZZ=             -0.1864  XYY=             25.1482
  XXY=            -38.2979  XXZ=             -0.2011  XZZ=             -4.4446  YZZ=             -5.2676
  YYZ=             -0.0699  XYZ=             -0.0066
 Hexadecapole moment (field-independent basis, Debye-Ang**3):
 XXXX=          -1605.6740 YYYY=           -749.3979 ZZZZ=           -280.5432 XXXY=           -250.9819
 XXXZ=              1.3301 YYYX=            -63.7707 YYYZ=              0.3404 ZZZX=              0.5267
 ZZZY=             -0.1530 XXYY=           -616.6654 XXZZ=           -525.3339 YYZZ=           -187.5475
 XXYZ=             -0.1340 YYXZ=              0.1934 ZZXY=             -1.6754
 N-N= 5.194374756672D+02 E-N=-3.179509760973D+03  KE= 9.041897748189D+02
  Exact polarizability:   0.000   0.000   0.000   0.000   0.000   0.000
 Approx polarizability: 137.438  -3.892  84.369   0.267  -0.157 119.461
 Rotating derivatives to standard orientation.
 ***** Axes restored to original set *****
 -------------------------------------------------------------------
 Center     Atomic                   Forces (Hartrees/Bohr)
 Number     Number              X              Y              Z
 -------------------------------------------------------------------
      1        6           0.016059201   -0.001681779   -0.001720760
      2        6          -0.016693173    0.000216808    0.005359778
      3        6           0.005849887    0.000172606    0.000610453
      4        6           0.004352971   -0.000044384   -0.004026018
      5        6          -0.007088594    0.000179175    0.002244393
      6        6           0.001426435    0.000218582   -0.000823225
      7        9          -0.000341760    0.000992902    0.001629652
      8        1          -0.000944758   -0.000032460   -0.001636414
      9        1          -0.001197872    0.000012424    0.000000003
     10        1           0.000177851   -0.000009518   -0.000308193
     11        1          -0.000620258    0.000009510   -0.001074310
     12        1          -0.000534963   -0.000030910    0.000010789
     13        8           0.000036495    0.000071017   -0.000045629
     14        6           0.007209999    0.000037191    0.004398045
     15        1          -0.003633880   -0.002446468   -0.002180253
     16        1          -0.003606402    0.002428749   -0.002166025
     17        1          -0.000693052   -0.000048682   -0.000391475
     18       17           0.000241871   -0.000044764    0.000119190
 -------------------------------------------------------------------
 Cartesian Forces:  Max     0.016693173 RMS     0.003918829
 -----------------------------------------------------------------------------------------------
                       Internal Coordinate Forces (Hartree/Bohr or radian)
  Cent   Atom   N1       Length/X         N2         Alpha/Y        N3         Beta/Z          J
 -----------------------------------------------------------------------------------------------
      1  C 
      2  C        1   0.000000(     1)
      3  C        2  -0.000000(     2)      1  -0.036291(    18)
      4  C        3  -0.000000(     3)      2  -0.028919(    19)      1   0.001664(    34)     0
      5  C        4  -0.000000(     4)      3  -0.018245(    20)      2   0.001320(    35)     0
      6  C        5  -0.000000(     5)      4   0.001033(    21)      3   0.000464(    36)     0
      7  F        1  -0.000000(     6)      2  -0.004047(    22)      3   0.001510(    37)     0
      8  H        2  -0.000000(     7)      3   0.003871(    23)      4  -0.000058(    38)     0
      9  H        3   0.000000(     8)      4   0.002451(    24)      5   0.000022(    39)     0
     10  H        4  -0.000000(     9)      5  -0.000728(    25)      6  -0.000017(    40)     0
     11  H        5  -0.000000(    10)      6  -0.002538(    26)      1   0.000017(    41)     0
     12  H        6  -0.000000(    11)      1  -0.001095(    27)      2  -0.000055(    42)     0
     13  O        7  -0.000008(    12)      1   0.000016(    28)      3  -0.000001(    43)     0
     14  C       13   0.000000(    13)      1   0.000110(    29)      2  -0.000000(    44)     0
     15  H       14  -0.000000(    14)      1   0.010175(    30)      2   0.000116(    45)     0
     16  H       14  -0.000000(    15)      1   0.010102(    31)      2  -0.000119(    46)     0
     17  H        7  -0.000001(    16)      1   0.001422(    32)      2   0.000082(    47)     0
     18  Cl      17   0.000003(    17)      7  -0.000664(    33)      1   0.000015(    48)     0
 -----------------------------------------------------------------------------------------------
 Internal  Forces:  Max     0.036290529 RMS     0.007566308
 1\1\GINC-R820\POpt\RM062X\6-311++G(d,p)\C7H8Cl1F1O1\ZJXU\03-Apr-2024\1
 \\# m062x 6-311++G(d,p) opt=(loose,z-matrix,recalc=5) scrf=(solvent=wa
 ter)\\test\\0,1\C\C,1,d1\C,2,d2,1,120.\C,3,d3,2,120.,1,0.,0\C,4,d4,3,1
 20.,2,0.,0\C,5,d5,4,120.,3,0.,0\F,1,d6,2,120.,3,180.,0\H,2,d7,3,120.,4
 ,180.,0\H,3,d8,4,120.,5,180.,0\H,4,d9,5,120.,6,180.,0\H,5,d10,6,120.,1
 ,180.,0\H,6,d11,1,120.,2,180.,0\O,7,d12,1,179.9,3,180.,0\C,13,d13,1,17
 9.9,2,180.,0\H,14,d14,1,120.,2,90.,0\H,14,d15,1,120.,2,-90.,0\H,7,d16,
 1,100.,2,90.,0\Cl,17,d17,7,160.,1,0.,0\\d1=1.37892502\d2=1.38372028\d3
 =1.3878621\d4=1.39572663\d5=1.39918027\d6=1.35486967\d7=1.08403122\d8=
 1.08271296\d9=1.08305182\d10=1.08264746\d11=1.08330417\d12=3.60680599\
 d13=1.20482378\d14=1.10051119\d15=1.1005618\d16=2.06263464\d17=1.28777
 346\\Version=ES64L-G16RevB.01\State=1-A\HF=-906.7403554\RMSD=2.816e-09
 \RMSF=3.919e-03\Dipole=-0.3204106,-0.7323918,-0.1818785\Polar=0.,0.,0.
 ,0.,0.,0.\Quadrupole=13.1941774,-15.115515,1.9213376,0.905683,10.00536
 83,0.5106995\PG=C01 [X(C7H8Cl1F1O1)]\\@


 Sacred cows make the best hamburger.
                               -- Mark Twain
 Job cpu time:       0 days  5 hours 10 minutes 44.2 seconds.
 Elapsed time:       0 days  2 hours 35 minutes 23.2 seconds.
 File lengths (MBytes):  RWF=    256 Int=      0 D2E=      0 Chk=     17 Scr=      1
 Normal termination of Gaussian 16 at Wed Apr  3 15:55:05 2024.
