 Entering Gaussian System, Link 0=g16
 Input=model_H3.gjf
 Output=model_H3.log
 Initial command:
 /home/zjxu/prog/g16/l1.exe "/home/zjxu/zjhan/5_model/HCl/water/Gau-46034.inp" -scrdir="/home/zjxu/zjhan/5_model/HCl/water/"
 Entering Link 1 = /home/zjxu/prog/g16/l1.exe PID=     46035.
  
 Copyright (c) 1988-2017, Gaussian, Inc.  All Rights Reserved.
  
 This is part of the Gaussian(R) 16 program.  It is based on
 the Gaussian(R) 09 system (copyright 2009, Gaussian, Inc.),
 the Gaussian(R) 03 system (copyright 2003, Gaussian, Inc.),
 the Gaussian(R) 98 system (copyright 1998, Gaussian, Inc.),
 the Gaussian(R) 94 system (copyright 1995, Gaussian, Inc.),
 the Gaussian 92(TM) system (copyright 1992, Gaussian, Inc.),
 the Gaussian 90(TM) system (copyright 1990, Gaussian, Inc.),
 the Gaussian 88(TM) system (copyright 1988, Gaussian, Inc.),
 the Gaussian 86(TM) system (copyright 1986, Carnegie Mellon
 University), and the Gaussian 82(TM) system (copyright 1983,
 Carnegie Mellon University). Gaussian is a federally registered
 trademark of Gaussian, Inc.
  
 This software contains proprietary and confidential information,
 including trade secrets, belonging to Gaussian, Inc.
  
 This software is provided under written license and may be
 used, copied, transmitted, or stored only in accord with that
 written license.
  
 The following legend is applicable only to US Government
 contracts under FAR:
  
                    RESTRICTED RIGHTS LEGEND
  
 Use, reproduction and disclosure by the US Government is
 subject to restrictions as set forth in subparagraphs (a)
 and (c) of the Commercial Computer Software - Restricted
 Rights clause in FAR 52.227-19.
  
 Gaussian, Inc.
 340 Quinnipiac St., Bldg. 40, Wallingford CT 06492
  
  
 ---------------------------------------------------------------
 Warning -- This program may not be used in any manner that
 competes with the business of Gaussian, Inc. or will provide
 assistance to any competitor of Gaussian, Inc.  The licensee
 of this program is prohibited from giving any competitor of
 Gaussian, Inc. access to this program.  By using this program,
 the user acknowledges that Gaussian, Inc. is engaged in the
 business of creating and licensing software in the field of
 computational chemistry and represents and warrants to the
 licensee that it is not a competitor of Gaussian, Inc. and that
 it will not use this program in any manner prohibited above.
 ---------------------------------------------------------------
  

 Cite this work as:
 Gaussian 16, Revision B.01,
 M. J. Frisch, G. W. Trucks, H. B. Schlegel, G. E. Scuseria, 
 M. A. Robb, J. R. Cheeseman, G. Scalmani, V. Barone, 
 G. A. Petersson, H. Nakatsuji, X. Li, M. Caricato, A. V. Marenich, 
 J. Bloino, B. G. Janesko, R. Gomperts, B. Mennucci, H. P. Hratchian, 
 J. V. Ortiz, A. F. Izmaylov, J. L. Sonnenberg, D. Williams-Young, 
 F. Ding, F. Lipparini, F. Egidi, J. Goings, B. Peng, A. Petrone, 
 T. Henderson, D. Ranasinghe, V. G. Zakrzewski, J. Gao, N. Rega, 
 G. Zheng, W. Liang, M. Hada, M. Ehara, K. Toyota, R. Fukuda, 
 J. Hasegawa, M. Ishida, T. Nakajima, Y. Honda, O. Kitao, H. Nakai, 
 T. Vreven, K. Throssell, J. A. Montgomery, Jr., J. E. Peralta, 
 F. Ogliaro, M. J. Bearpark, J. J. Heyd, E. N. Brothers, K. N. Kudin, 
 V. N. Staroverov, T. A. Keith, R. Kobayashi, J. Normand, 
 K. Raghavachari, A. P. Rendell, J. C. Burant, S. S. Iyengar, 
 J. Tomasi, M. Cossi, J. M. Millam, M. Klene, C. Adamo, R. Cammi, 
 J. W. Ochterski, R. L. Martin, K. Morokuma, O. Farkas, 
 J. B. Foresman, and D. J. Fox, Gaussian, Inc., Wallingford CT, 2016.
 
 ******************************************
 Gaussian 16:  ES64L-G16RevB.01 20-Dec-2017
                 3-Apr-2024 
 ******************************************
 %mem=4GB
 %nproc=4
 Will use up to    4 processors via shared memory.
 %chk=model_H3
 ----------------------------------------------------------------------
 # m062x 6-311++G(d,p) opt=(z-matrix,maxcyc=31,recalc=5,loose) scrf=(so
 lvent=water)
 ----------------------------------------------------------------------
 1/6=31,7=-1,10=7,18=40,26=3,38=1,71=5/1,3;
 2/12=2,17=6,18=5,29=3,40=1/2;
 3/5=4,6=6,7=1111,11=2,25=1,30=1,70=2201,71=2,72=1,74=-55,140=1/1,2,3;
 4//1;
 5/5=2,38=5,53=1/2;
 8/6=4,10=90,11=11/1;
 11/6=1,8=1,9=11,15=111,16=1/1,2,10;
 10/6=1/2;
 6/7=2,8=2,9=2,10=2,28=1/1;
 7/10=1,25=1/1,2,3,16;
 1/6=31,7=-1,10=7,18=40,26=3,71=5/3(3);
 2/29=3/2;
 7/9=1,25=1,44=-1/16;
 99//99;
 2/29=3/2;
 3/5=4,6=6,7=1111,11=2,25=1,30=1,70=2205,71=2,72=1,74=-55,140=1/1,2,3;
 4/5=5,16=3,69=1/1;
 5/5=2,38=5,53=1/2;
 8/6=4,10=90,11=11/1;
 11/6=1,8=1,9=11,15=111,16=1/1,2,10;
 10/6=1/2;
 7/10=1,25=1/1,2,3,16;
 1/6=31,7=-1,18=40,26=3,71=5/3(-8);
 2/29=3/2;
 6/7=2,8=2,9=2,10=2,19=2,28=1/1;
 7/9=1,25=1,44=-1/16;
 99/9=1/99;
 ----
 test
 ----
 Symbolic Z-matrix:
 Charge =  0 Multiplicity = 1
 C1
 C2                   1    d1
 C3                   2    d2       1     120. 
 C4                   3    d3       2     120.     1     0.       0
 C5                   4    d4       3     120.     2     0.       0
 C6                   5    d5       4     120.     3     0.       0
 F7                   1    d6       2     120.     3     180.     0
 H8                   2    d7       3     120.     4     180.     0
 H9                   3    d8       4     120.     5     180.     0
 H10                  4    d9       5     120.     6     180.     0
 H11                  5    d10      6     120.     1     180.     0
 H12                  6    d11      1     120.     2     180.     0
 O13                  7    d12      1     179.9    3     180.     0
 C14                  13   d13      1     179.9    2     180.     0
 H15                  14   d14      1     120.     2     90.      0
 H16                  14   d15      1     120.     2    -90.      0
 H17                  7    d16      1     100.     2     90.      0
 Cl18                 17   d17      7     160.     1     0.       0
 H19                  7    d18      1     100.     2    -30.      0
 Cl20                 19   d19      7     160.     1     0.       0
 H21                  7    d18      1     100.     2    -150.     0
 Cl22                 21   d19      7     160.     1     0.       0
       Variables:
  d1                    1.3                      
  d2                    1.3                      
  d3                    1.3                      
  d4                    1.3                      
  d5                    1.3                      
  d6                    1.4                      
  d7                    1.                       
  d8                    1.                       
  d9                    1.                       
  d10                   1.                       
  d11                   1.                       
  d12                   2.8                      
  d13                   1.2                      
  d14                   1.                       
  d15                   1.                       
  d16                   2.3                      
  d17                   0.9                      
  d18                   2.3                      
  d19                   0.9                      
 

 GradGradGradGradGradGradGradGradGradGradGradGradGradGradGradGradGradGrad
 Berny optimization.
 Initialization pass.
                       ----------------------------
                       !    Initial Parameters    !
                       ! (Angstroms and Degrees)  !
 ----------------------                            ----------------------
 !      Name          Value   Derivative information (Atomic Units)     !
 ------------------------------------------------------------------------
 !       d1          1.3      calculate D2E/DX2 analytically            !
 !       d2          1.3      calculate D2E/DX2 analytically            !
 !       d3          1.3      calculate D2E/DX2 analytically            !
 !       d4          1.3      calculate D2E/DX2 analytically            !
 !       d5          1.3      calculate D2E/DX2 analytically            !
 !       d6          1.4      calculate D2E/DX2 analytically            !
 !       d7          1.0      calculate D2E/DX2 analytically            !
 !       d8          1.0      calculate D2E/DX2 analytically            !
 !       d9          1.0      calculate D2E/DX2 analytically            !
 !       d10         1.0      calculate D2E/DX2 analytically            !
 !       d11         1.0      calculate D2E/DX2 analytically            !
 !       d12         2.8      calculate D2E/DX2 analytically            !
 !       d13         1.2      calculate D2E/DX2 analytically            !
 !       d14         1.0      calculate D2E/DX2 analytically            !
 !       d15         1.0      calculate D2E/DX2 analytically            !
 !       d16         2.3      calculate D2E/DX2 analytically            !
 !       d17         0.9      calculate D2E/DX2 analytically            !
 !       d18         2.3      calculate D2E/DX2 analytically            !
 !       d19         0.9      calculate D2E/DX2 analytically            !
 ------------------------------------------------------------------------
 Trust Radius=3.00D-01 FncErr=1.00D-07 GrdErr=1.00D-06 EigMax=2.50D+02 EigMin=1.00D-04
 Number of steps in this run=     31 maximum allowed number of steps=    100.
 GradGradGradGradGradGradGradGradGradGradGradGradGradGradGradGradGradGrad

 ---------------------------------------------------------------------------------------------------
                            Z-MATRIX (ANGSTROMS AND DEGREES)
   CD    Cent   Atom    N1       Length/X        N2       Alpha/Y        N3        Beta/Z          J
 ---------------------------------------------------------------------------------------------------
      1      1  C 
      2      2  C        1   1.300000(     1)
      3      3  C        2   1.300000(     2)      1  120.000(    22)
      4      4  C        3   1.300000(     3)      2  120.000(    23)      1    0.000(    42)      0
      5      5  C        4   1.300000(     4)      3  120.000(    24)      2    0.000(    43)      0
      6      6  C        5   1.300000(     5)      4  120.000(    25)      3    0.000(    44)      0
      7      7  F        1   1.400000(     6)      2  120.000(    26)      3  180.000(    45)      0
      8      8  H        2   1.000000(     7)      3  120.000(    27)      4  180.000(    46)      0
      9      9  H        3   1.000000(     8)      4  120.000(    28)      5  180.000(    47)      0
     10     10  H        4   1.000000(     9)      5  120.000(    29)      6  180.000(    48)      0
     11     11  H        5   1.000000(    10)      6  120.000(    30)      1  180.000(    49)      0
     12     12  H        6   1.000000(    11)      1  120.000(    31)      2  180.000(    50)      0
     13     13  O        7   2.800000(    12)      1  179.900(    32)      3  180.000(    51)      0
     14     14  C       13   1.200000(    13)      1  179.900(    33)      2  180.000(    52)      0
     15     15  H       14   1.000000(    14)      1  120.000(    34)      2   90.000(    53)      0
     16     16  H       14   1.000000(    15)      1  120.000(    35)      2  -90.000(    54)      0
     17     17  H        7   2.300000(    16)      1  100.000(    36)      2   90.000(    55)      0
     18     18  Cl      17   0.900000(    17)      7  160.000(    37)      1    0.000(    56)      0
     19     19  H        7   2.300000(    18)      1  100.000(    38)      2  -30.000(    57)      0
     20     20  Cl      19   0.900000(    19)      7  160.000(    39)      1    0.000(    58)      0
     21     21  H        7   2.300000(    20)      1  100.000(    40)      2 -150.000(    59)      0
     22     22  Cl      21   0.900000(    21)      7  160.000(    41)      1    0.000(    60)      0
 ---------------------------------------------------------------------------------------------------
                         Z-Matrix orientation:                         
 ---------------------------------------------------------------------
 Center     Atomic      Atomic             Coordinates (Angstroms)
 Number     Number       Type             X           Y           Z
 ---------------------------------------------------------------------
      1          6           0        0.000000    0.000000    0.000000
      2          6           0        0.000000    0.000000    1.300000
      3          6           0        1.125833    0.000000    1.950000
      4          6           0        2.251666    0.000000    1.300000
      5          6           0        2.251666    0.000000   -0.000000
      6          6           0        1.125833    0.000000   -0.650000
      7          9           0       -1.212436   -0.000000   -0.700000
      8          1           0       -0.866025   -0.000000    1.800000
      9          1           0        1.125833   -0.000000    2.950000
     10          1           0        3.117691   -0.000000    1.800000
     11          1           0        3.117691   -0.000000   -0.500000
     12          1           0        1.125833   -0.000000   -1.650000
     13          8           0       -3.634860   -0.000000   -2.104230
     14          6           0       -4.672340   -0.000000   -2.707251
     15          1           0       -5.104965    0.866025   -2.957922
     16          1           0       -5.104965   -0.866025   -2.957922
     17          1           0       -1.558318    2.265058   -0.899695
     18         17           0       -1.422973    3.151385   -0.821554
     19          1           0       -2.539117   -1.132529    0.799098
     20         17           0       -2.787562   -1.575692    1.541985
     21          1           0       -0.577519   -1.132529   -2.598489
     22         17           0       -0.058383   -1.575692   -3.185092
 ---------------------------------------------------------------------
                    Distance matrix (angstroms):
                    1          2          3          4          5
     1  C    0.000000
     2  C    1.300000   0.000000
     3  C    2.251666   1.300000   0.000000
     4  C    2.600000   2.251666   1.300000   0.000000
     5  C    2.251666   2.600000   2.251666   1.300000   0.000000
     6  C    1.300000   2.251666   2.600000   2.251666   1.300000
     7  F    1.400000   2.338803   3.534119   4.000000   3.534119
     8  H    1.997498   1.000000   1.997498   3.157531   3.600000
     9  H    3.157531   1.997498   1.000000   1.997498   3.157531
    10  H    3.600000   3.157531   1.997498   1.000000   1.997498
    11  H    3.157531   3.600000   3.157531   1.997498   1.000000
    12  H    1.997498   3.157531   3.600000   3.157531   1.997498
    13  O    4.199999   4.980059   6.253077   6.799997   6.251317
    14  C    5.399997   6.155390   7.436988   7.999995   7.434452
    15  H    5.963218   6.703772   7.978755   8.543999   7.976172
    16  H    5.963218   6.703772   7.978755   8.543999   7.976172
    17  H    2.892800   3.521009   4.522822   4.948245   4.522822
    18  Cl   3.554016   4.056731   4.910107   5.285375   4.910107
    19  H    2.892800   2.825003   4.004879   4.948245   4.987262
    20  Cl   3.554016   3.211210   4.238390   5.285375   5.500395
    21  H    2.892800   4.100532   4.987262   4.948245   4.004879
    22  Cl   3.554016   4.754184   5.500395   5.285375   4.238390
                    6          7          8          9         10
     6  C    0.000000
     7  F    2.338803   0.000000
     8  H    3.157531   2.523886   0.000000
     9  H    3.600000   4.334743   2.300000   0.000000
    10  H    3.157531   5.000000   3.983717   2.300000   0.000000
    11  H    1.997498   4.334743   4.600000   3.983717   2.300000
    12  H    1.000000   2.523886   3.983717   4.600000   3.983717
    13  O    4.977849   2.800000   4.786382   6.943301   7.799997
    14  C    6.152324   3.999999   5.899436   8.100821   8.999995
    15  H    6.700697   4.582575   6.430896   8.629970   9.539387
    16  H    6.700697   4.582575   6.430896   8.629970   9.539387
    17  H    3.521009   2.300000   3.591394   5.211076   5.855246
    18  Cl   4.056731   3.160748   4.136902   5.536448   6.117303
    19  H    4.100532   2.300000   2.254698   4.397824   5.855246
    20  Cl   4.754184   3.160748   2.498336   4.447469   6.117303
    21  H    2.825003   2.300000   4.551105   5.913523   5.855246
    22  Cl   3.211210   3.160748   5.290202   6.443953   6.117303
                   11         12         13         14         15
    11  H    0.000000
    12  H    2.300000   0.000000
    13  O    6.940497   4.782313   0.000000
    14  C    8.096700   5.893776   1.200000   0.000000
    15  H    8.625744   6.425224   1.907878   1.000000   0.000000
    16  H    8.625744   6.425224   1.907878   1.000000   1.732051
    17  H    5.211076   3.591394   3.300517   4.253807   4.332700
    18  Cl   5.536448   4.136902   4.058193   4.903618   4.831563
    19  H    5.913523   4.551105   3.303421   4.257669   4.969204
    20  Cl   6.443953   5.290202   4.061478   4.908278   5.619742
    21  H    4.397824   2.254698   3.297612   4.249942   4.961973
    22  Cl   4.447469   2.498336   4.054905   4.898953   5.610845
                   16         17         18         19         20
    16  H    0.000000
    17  H    5.159329   0.000000
    18  Cl   5.853266   0.900000   0.000000
    19  H    4.557389   3.923195   4.714256   0.000000
    20  Cl   5.111080   4.714256   5.458359   0.900000   0.000000
    21  H    4.549503   3.923195   4.714256   3.923195   4.714256
    22  Cl   5.101296   4.714256   5.458359   4.714256   5.458359
                   21         22
    21  H    0.000000
    22  Cl   0.900000   0.000000
 Stoichiometry    C7H10Cl3FO
 Framework group  C1[X(C7H10Cl3FO)]
 Deg. of freedom    60
 Full point group                 C1      NOp   1
 Largest Abelian subgroup         C1      NOp   1
 Largest concise Abelian subgroup C1      NOp   1
                         Standard orientation:                         
 ---------------------------------------------------------------------
 Center     Atomic      Atomic             Coordinates (Angstroms)
 Number     Number       Type             X           Y           Z
 ---------------------------------------------------------------------
      1          6           0       -1.033304   -0.001031    0.000000
      2          6           0       -1.685405    1.123586    0.000000
      3          6           0       -2.985402    1.121160    0.000000
      4          6           0       -3.633300   -0.005884    0.000000
      5          6           0       -2.981200   -1.130502    0.000000
      6          6           0       -1.681202   -1.128076    0.000000
      7          9           0        0.366693    0.001582    0.000000
      8          1           0       -1.187022    1.990544    0.000000
      9          1           0       -3.487018    1.986251    0.000000
     10          1           0       -4.633298   -0.007751    0.000000
     11          1           0       -3.479582   -1.997459    0.000000
     12          1           0       -1.179586   -1.993166    0.000000
     13          8           0        3.166693    0.001921    0.000000
     14          6           0        4.366692    0.000670    0.000000
     15          1           0        4.866692    0.000828    0.866025
     16          1           0        4.866692    0.000828   -0.866025
     17          1           0        0.766083    0.002327    2.265058
     18         17           0        0.609800    0.002035    3.151385
     19          1           0        0.762422    1.963921   -1.132529
     20         17           0        0.604706    2.731210   -1.575692
     21          1           0        0.769745   -1.959267   -1.132529
     22         17           0        0.614894   -2.727139   -1.575692
 ---------------------------------------------------------------------
 Rotational constants (GHZ):           0.4449902           0.3342099           0.3183525
 Standard basis: 6-311++G(d,p) (5D, 7F)
 There are   370 symmetry adapted cartesian basis functions of A   symmetry.
 There are   358 symmetry adapted basis functions of A   symmetry.
   358 basis functions,   573 primitive gaussians,   370 cartesian basis functions
    60 alpha electrons       60 beta electrons
       nuclear repulsion energy       980.5257082673 Hartrees.
 NAtoms=   22 NActive=   22 NUniq=   22 SFac= 1.00D+00 NAtFMM=   60 NAOKFM=F Big=F
 Integral buffers will be    131072 words long.
 Raffenetti 2 integral format.
 Two-electron integral symmetry is turned on.
 Force inversion solution in PCM.
 ------------------------------------------------------------------------------
 Polarizable Continuum Model (PCM)
 =================================
 Model                : PCM.
 Atomic radii         : UFF (Universal Force Field).
 Polarization charges : Total charges.
 Charge compensation  : None.
 Solution method      : Matrix inversion.
 Cavity type          : Scaled VdW (van der Waals Surface) (Alpha=1.100).
 Cavity algorithm     : GePol (No added spheres)
                        Default sphere list used, NSphG=   22.
                        Lebedev-Laikov grids with approx.  5.0 points / Ang**2.
                        Smoothing algorithm: York/Karplus (Gamma=1.0000).
                        Polarization charges: spherical gaussians, with
                                              point-specific exponents (IZeta= 3).
                        Self-potential: point-specific (ISelfS= 7).
                        Self-field    : sphere-specific E.n sum rule (ISelfD= 2).
 1st derivatives      : Analytical E(r).r(x)/FMM algorithm (CHGder, D1EAlg=3).
                        Cavity 1st derivative terms included.
 2nd derivatives      : Analytical E(r).r(xy)/FMM algorithm (CHGder, D2EAlg=3).
                        Cavity 2nd derivative terms included.
 Solvent              : Water, Eps=  78.355300 Eps(inf)=   1.777849
 ------------------------------------------------------------------------------
 One-electron integrals computed using PRISM.
 NBasis=   358 RedAO= T EigKep=  2.82D-06  NBF=   358
 NBsUse=   357 1.00D-06 EigRej=  3.59D-07 NBFU=   357
 ExpMin= 3.60D-02 ExpMax= 1.06D+05 ExpMxC= 3.62D+03 IAcc=3 IRadAn=         5 AccDes= 0.00D+00
 Harris functional with IExCor= 1009 and IRadAn=       5 diagonalized for initial guess.
 HarFok:  IExCor= 1009 AccDes= 0.00D+00 IRadAn=         5 IDoV= 1 UseB2=F ITyADJ=14
 ICtDFT=  3500011 ScaDFX=  1.000000  1.000000  1.000000  1.000000
 FoFCou: FMM=F IPFlag=           0 FMFlag=      100000 FMFlg1=           0
         NFxFlg=           0 DoJE=T BraDBF=F KetDBF=T FulRan=T
         wScrn=  0.000000 ICntrl=       500 IOpCl=  0 I1Cent=   200000004 NGrid=           0
         NMat0=    1 NMatS0=      1 NMatT0=    0 NMatD0=    1 NMtDS0=    0 NMtDT0=    0
 Petite list used in FoFCou.
 Requested convergence on RMS density matrix=1.00D-08 within 128 cycles.
 Requested convergence on MAX density matrix=1.00D-06.
 Requested convergence on             energy=1.00D-06.
 No special actions if energy rises.
 Inv3:  Mode=1 IEnd=    14520000.
 Iteration    1 A*A^-1 deviation from unit magnitude is 6.88D-15 for   2199.
 Iteration    1 A*A^-1 deviation from orthogonality  is 1.85D-15 for   2189   2185.
 Iteration    1 A^-1*A deviation from unit magnitude is 7.11D-15 for   2199.
 Iteration    1 A^-1*A deviation from orthogonality  is 1.60D-15 for   1362   1252.
 Error on total polarization charges =  0.01730
 SCF Done:  E(RM062X) =  -1827.66597853     A.U. after   14 cycles
            NFock= 14  Conv=0.50D-08     -V/T= 1.9989
 DoSCS=F DFT=T ScalE2(SS,OS)=  1.000000  1.000000
 Range of M.O.s used for correlation:     1   357
 NBasis=   358 NAE=    60 NBE=    60 NFC=     0 NFV=     0
 NROrb=    357 NOA=    60 NOB=    60 NVA=   297 NVB=   297

 **** Warning!!: The largest alpha MO coefficient is  0.16091920D+03

 Symmetrizing basis deriv contribution to polar:
 IMax=3 JMax=2 DiffMx= 0.00D+00
 G2DrvN: will do    23 centers at a time, making    1 passes.
 Calling FoFCou, ICntrl=  3107 FMM=F I1Cent=   0 AccDes= 0.00D+00.
 NEqPCM:  Using equilibrium solvation (IEInf=0, Eps=  78.3553, EpsInf=   1.7778)
 G2PCM: DoFxE=T DoFxN=T DoGrad=T DoDP/DQ/DG/TGxP=FFFF NFrqRd=   0 IEInf=0 SqF1=F DoCFld=F IF1Alg=4.
 End of G2Drv F.D. properties file   721 does not exist.
 End of G2Drv F.D. properties file   722 does not exist.
 End of G2Drv F.D. properties file   788 does not exist.
          IDoAtm=1111111111111111111111
 NEqPCM:  Using equilibrium solvation (IEInf=0, Eps=  78.3553, EpsInf=   1.7778)
          Differentiating once with respect to electric field.
                with respect to dipole field.
          Differentiating once with respect to nuclear coordinates.
 CalDSu exits because no D1Ps are significant.
          There are    69 degrees of freedom in the 1st order CPHF.  IDoFFX=6 NUNeed=     3.
     66 vectors produced by pass  0 Test12= 2.58D-14 1.45D-09 XBig12= 6.60D+01 3.75D+00.
 AX will form    66 AO Fock derivatives at one time.
     66 vectors produced by pass  1 Test12= 2.58D-14 1.45D-09 XBig12= 8.51D+00 4.90D-01.
     66 vectors produced by pass  2 Test12= 2.58D-14 1.45D-09 XBig12= 1.15D-01 6.75D-02.
     66 vectors produced by pass  3 Test12= 2.58D-14 1.45D-09 XBig12= 8.45D-04 5.41D-03.
     66 vectors produced by pass  4 Test12= 2.58D-14 1.45D-09 XBig12= 4.19D-06 2.55D-04.
     66 vectors produced by pass  5 Test12= 2.58D-14 1.45D-09 XBig12= 2.26D-08 2.17D-05.
     51 vectors produced by pass  6 Test12= 2.58D-14 1.45D-09 XBig12= 8.23D-11 1.02D-06.
     11 vectors produced by pass  7 Test12= 2.58D-14 1.45D-09 XBig12= 2.92D-13 8.08D-08.
      3 vectors produced by pass  8 Test12= 2.58D-14 1.45D-09 XBig12= 1.00D-15 3.52D-09.
 InvSVY:  IOpt=1 It=  1 EMax= 7.99D-15
 Solved reduced A of dimension   461 with    69 vectors.
 Isotropic polarizability for W=    0.000000      129.92 Bohr**3.
 End of Minotr F.D. properties file   721 does not exist.
 End of Minotr F.D. properties file   722 does not exist.
 End of Minotr F.D. properties file   788 does not exist.

 **********************************************************************

            Population analysis using the SCF Density.

 **********************************************************************

 Orbital symmetries:
       Occupied  (A) (A) (A) (A) (A) (A) (A) (A) (A) (A) (A) (A)
                 (A) (A) (A) (A) (A) (A) (A) (A) (A) (A) (A) (A)
                 (A) (A) (A) (A) (A) (A) (A) (A) (A) (A) (A) (A)
                 (A) (A) (A) (A) (A) (A) (A) (A) (A) (A) (A) (A)
                 (A) (A) (A) (A) (A) (A) (A) (A) (A) (A) (A) (A)
       Virtual   (A) (A) (A) (A) (A) (A) (A) (A) (A) (A) (A) (A)
                 (A) (A) (A) (A) (A) (A) (A) (A) (A) (A) (A) (A)
                 (A) (A) (A) (A) (A) (A) (A) (A) (A) (A) (A) (A)
                 (A) (A) (A) (A) (A) (A) (A) (A) (A) (A) (A) (A)
                 (A) (A) (A) (A) (A) (A) (A) (A) (A) (A) (A) (A)
                 (A) (A) (A) (A) (A) (A) (A) (A) (A) (A) (A) (A)
                 (A) (A) (A) (A) (A) (A) (A) (A) (A) (A) (A) (A)
                 (A) (A) (A) (A) (A) (A) (A) (A) (A) (A) (A) (A)
                 (A) (A) (A) (A) (A) (A) (A) (A) (A) (A) (A) (A)
                 (A) (A) (A) (A) (A) (A) (A) (A) (A) (A) (A) (A)
                 (A) (A) (A) (A) (A) (A) (A) (A) (A) (A) (A) (A)
                 (A) (A) (A) (A) (A) (A) (A) (A) (A) (A) (A) (A)
                 (A) (A) (A) (A) (A) (A) (A) (A) (A) (A) (A) (A)
                 (A) (A) (A) (A) (A) (A) (A) (A) (A) (A) (A) (A)
                 (A) (A) (A) (A) (A) (A) (A) (A) (A) (A) (A) (A)
                 (A) (A) (A) (A) (A) (A) (A) (A) (A) (A) (A) (A)
                 (A) (A) (A) (A) (A) (A) (A) (A) (A) (A) (A) (A)
                 (A) (A) (A) (A) (A) (A) (A) (A) (A) (A) (A) (A)
                 (A) (A) (A) (A) (A) (A) (A) (A) (A) (A) (A) (A)
                 (A) (A) (A) (A) (A) (A) (A) (A) (A) (A) (A) (A)
                 (A) (A) (A) (A) (A) (A) (A) (A) (A) (A) (A) (A)
                 (A) (A) (A) (A) (A) (A) (A) (A) (A) (A) (A) (A)
                 (A) (A) (A) (A) (A) (A) (A) (A) (A) (A) (A) (A)
                 (A) (A) (A) (A) (A) (A) (A) (A) (A) (A) (A) (A)
                 (A) (A) (A) (A) (A) (A) (A) (A) (A)
 The electronic state is 1-A.
 Alpha  occ. eigenvalues -- -102.65145-102.65144-102.65074 -25.26285 -19.63965
 Alpha  occ. eigenvalues --  -10.61685 -10.61622 -10.52566 -10.52563 -10.52290
 Alpha  occ. eigenvalues --  -10.52278 -10.51562  -9.81670  -9.81669  -9.81565
 Alpha  occ. eigenvalues --   -7.54388  -7.54388  -7.54284  -7.53216  -7.53215
 Alpha  occ. eigenvalues --   -7.53210  -7.53210  -7.53113  -7.53112  -1.36908
 Alpha  occ. eigenvalues --   -1.19173  -1.04272  -1.04271  -1.03957  -1.03354
 Alpha  occ. eigenvalues --   -0.89543  -0.88727  -0.74960  -0.74163  -0.72673
 Alpha  occ. eigenvalues --   -0.66880  -0.60504  -0.60335  -0.59892  -0.59617
 Alpha  occ. eigenvalues --   -0.58554  -0.58393  -0.56847  -0.54260  -0.53693
 Alpha  occ. eigenvalues --   -0.52942  -0.50840  -0.48147  -0.47593  -0.44886
 Alpha  occ. eigenvalues --   -0.43218  -0.41240  -0.41229  -0.41045  -0.41013
 Alpha  occ. eigenvalues --   -0.40787  -0.40129  -0.35102  -0.33946  -0.33109
 Alpha virt. eigenvalues --   -0.00535  -0.00242   0.00866   0.01338   0.01582
 Alpha virt. eigenvalues --    0.02412   0.02426   0.03169   0.03359   0.03977
 Alpha virt. eigenvalues --    0.04346   0.05061   0.05605   0.06666   0.06670
 Alpha virt. eigenvalues --    0.06884   0.07397   0.08877   0.09518   0.09808
 Alpha virt. eigenvalues --    0.09977   0.10640   0.10817   0.11305   0.11879
 Alpha virt. eigenvalues --    0.12095   0.12401   0.13491   0.13893   0.14066
 Alpha virt. eigenvalues --    0.14069   0.14291   0.14909   0.15095   0.15922
 Alpha virt. eigenvalues --    0.16384   0.16629   0.16754   0.17150   0.17445
 Alpha virt. eigenvalues --    0.17767   0.18446   0.18723   0.20408   0.20565
 Alpha virt. eigenvalues --    0.21232   0.21253   0.21566   0.21696   0.22702
 Alpha virt. eigenvalues --    0.23584   0.23815   0.24212   0.24538   0.25202
 Alpha virt. eigenvalues --    0.26518   0.27467   0.29088   0.29595   0.30660
 Alpha virt. eigenvalues --    0.31177   0.31964   0.32783   0.33200   0.34373
 Alpha virt. eigenvalues --    0.35285   0.35845   0.36394   0.38428   0.39523
 Alpha virt. eigenvalues --    0.39614   0.41126   0.43139   0.43674   0.44048
 Alpha virt. eigenvalues --    0.44585   0.45526   0.48532   0.49997   0.50606
 Alpha virt. eigenvalues --    0.51236   0.51340   0.51792   0.52832   0.52918
 Alpha virt. eigenvalues --    0.54226   0.55126   0.56867   0.57360   0.58560
 Alpha virt. eigenvalues --    0.59672   0.59793   0.61613   0.62016   0.62353
 Alpha virt. eigenvalues --    0.63537   0.63660   0.64733   0.65264   0.66819
 Alpha virt. eigenvalues --    0.66982   0.67872   0.68212   0.69893   0.70616
 Alpha virt. eigenvalues --    0.72446   0.72805   0.76167   0.77252   0.78058
 Alpha virt. eigenvalues --    0.78641   0.80373   0.81445   0.81540   0.81820
 Alpha virt. eigenvalues --    0.83636   0.85205   0.85580   0.85951   0.88519
 Alpha virt. eigenvalues --    0.89106   0.90399   0.90614   0.93510   0.93957
 Alpha virt. eigenvalues --    0.96825   0.97085   0.98093   0.98179   1.00214
 Alpha virt. eigenvalues --    1.00653   1.01479   1.03076   1.05921   1.06089
 Alpha virt. eigenvalues --    1.07519   1.08504   1.08532   1.11498   1.13193
 Alpha virt. eigenvalues --    1.15915   1.15934   1.17496   1.17969   1.18412
 Alpha virt. eigenvalues --    1.22125   1.22756   1.24781   1.29022   1.31249
 Alpha virt. eigenvalues --    1.33158   1.34017   1.36133   1.38760   1.39072
 Alpha virt. eigenvalues --    1.43686   1.52277   1.53617   1.54014   1.56328
 Alpha virt. eigenvalues --    1.58328   1.61829   1.62415   1.65969   1.66373
 Alpha virt. eigenvalues --    1.67546   1.68381   1.69577   1.71744   1.73463
 Alpha virt. eigenvalues --    1.74731   1.76977   1.78035   1.80648   1.81352
 Alpha virt. eigenvalues --    1.82423   1.84818   1.85776   1.86213   1.87083
 Alpha virt. eigenvalues --    1.87121   1.88971   1.91195   1.93306   1.94614
 Alpha virt. eigenvalues --    1.97429   1.99860   2.04470   2.04811   2.05867
 Alpha virt. eigenvalues --    2.06082   2.08108   2.13218   2.16089   2.16788
 Alpha virt. eigenvalues --    2.17528   2.19706   2.20578   2.21077   2.21278
 Alpha virt. eigenvalues --    2.23645   2.25335   2.29329   2.30252   2.30382
 Alpha virt. eigenvalues --    2.32619   2.33911   2.35691   2.36151   2.37455
 Alpha virt. eigenvalues --    2.38472   2.43609   2.44143   2.47299   2.49113
 Alpha virt. eigenvalues --    2.50852   2.52144   2.58636   2.64940   2.67293
 Alpha virt. eigenvalues --    2.71185   2.71947   2.75474   2.77547   2.78809
 Alpha virt. eigenvalues --    2.79032   2.79204   2.81539   2.86525   2.86532
 Alpha virt. eigenvalues --    2.89065   2.90493   2.90643   2.96558   2.98611
 Alpha virt. eigenvalues --    3.00735   3.03550   3.08837   3.12242   3.24695
 Alpha virt. eigenvalues --    3.27419   3.35338   3.40067   3.42856   3.45456
 Alpha virt. eigenvalues --    3.45459   3.50054   3.55473   3.59831   3.62091
 Alpha virt. eigenvalues --    3.64891   3.75807   3.75919   3.86834   3.89882
 Alpha virt. eigenvalues --    3.98485   4.00647   4.03929   4.09869   4.14219
 Alpha virt. eigenvalues --    4.17361   4.19309   4.26370   4.26502   4.36679
 Alpha virt. eigenvalues --    4.95141   4.95942   5.12244   5.23722   5.83800
 Alpha virt. eigenvalues --    6.54606   6.65066   6.91180  10.31130  10.31221
 Alpha virt. eigenvalues --   10.40396  23.73932  24.18033  24.26967  24.31722
 Alpha virt. eigenvalues --   24.54156  24.57361  24.72954  25.94083  25.94632
 Alpha virt. eigenvalues --   25.94781  26.02838  26.11175  26.12715  27.13548
 Alpha virt. eigenvalues --   27.13651  27.17242  50.07367  66.97028 216.51988
 Alpha virt. eigenvalues --  216.52082 216.64611
          Condensed to atoms (all electrons):
               1          2          3          4          5          6
     1  C   15.436393  -2.200067  -2.773007   0.594544  -2.778770  -2.213132
     2  C   -2.200067  16.210094   1.768193  -0.780815  -0.545220  -8.377695
     3  C   -2.773007   1.768193   8.106557   0.041068  -0.847161  -0.544153
     4  C    0.594544  -0.780815   0.041068   7.018460   0.043327  -0.778528
     5  C   -2.778770  -0.545220  -0.847161   0.043327   8.109356   1.768510
     6  C   -2.213132  -8.377695  -0.544153  -0.778528   1.768510  16.217402
     7  F    0.502891  -0.270252  -0.009667  -0.018763  -0.009948  -0.270772
     8  H   -0.305016  -0.279597  -0.161530  -0.127282   0.424827   0.303479
     9  H    0.025796   0.020674   0.488710  -0.095549  -0.094282   0.033604
    10  H    0.048483  -0.016390  -0.074799   0.495848  -0.074789  -0.016164
    11  H    0.026495   0.033736  -0.094431  -0.095392   0.488105   0.020523
    12  H   -0.308598   0.301977   0.425170  -0.127609  -0.158340  -0.278102
    13  O    0.042813  -0.016425  -0.000591  -0.002151  -0.000588  -0.016460
    14  C   -0.006379   0.001819   0.001503  -0.000383   0.001515   0.001899
    15  H    0.005754  -0.001881  -0.000896   0.000293  -0.000904  -0.001927
    16  H   -0.004187   0.001351   0.000480   0.000030   0.000487   0.001391
    17  H   -0.007318  -0.016025  -0.022969   0.045422  -0.022907  -0.017056
    18  Cl  -0.026106   0.029756   0.022874  -0.046535   0.022851   0.030577
    19  H   -0.020063   0.419738   0.010882   0.042237  -0.092237  -0.191282
    20  Cl   0.065236  -0.388472   0.004238  -0.024834   0.048902   0.046640
    21  H   -0.017826  -0.189665  -0.092111   0.042271   0.009541   0.417324
    22  Cl   0.062797   0.045406   0.048792  -0.024690   0.005546  -0.386152
               7          8          9         10         11         12
     1  C    0.502891  -0.305016   0.025796   0.048483   0.026495  -0.308598
     2  C   -0.270252  -0.279597   0.020674  -0.016390   0.033736   0.301977
     3  C   -0.009667  -0.161530   0.488710  -0.074799  -0.094431   0.425170
     4  C   -0.018763  -0.127282  -0.095549   0.495848  -0.095392  -0.127609
     5  C   -0.009948   0.424827  -0.094282  -0.074789   0.488105  -0.158340
     6  C   -0.270772   0.303479   0.033604  -0.016164   0.020523  -0.278102
     7  F    9.269759   0.018958  -0.002331   0.001014  -0.002319   0.018860
     8  H    0.018958   1.252512  -0.098640  -0.007286   0.011176  -0.031398
     9  H   -0.002331  -0.098640   0.494512  -0.011392  -0.002799   0.011200
    10  H    0.001014  -0.007286  -0.011392   0.486759  -0.011398  -0.007277
    11  H   -0.002319   0.011176  -0.002799  -0.011398   0.494542  -0.098791
    12  H    0.018860  -0.031398   0.011200  -0.007277  -0.098791   1.253704
    13  O    0.007045   0.001399   0.000064  -0.000013   0.000065   0.001367
    14  C    0.002226   0.003551  -0.000087   0.000011  -0.000088   0.003560
    15  H   -0.000321  -0.001141   0.000008   0.000004   0.000008  -0.001154
    16  H   -0.000261   0.000104   0.000001  -0.000003   0.000000   0.000120
    17  H    0.001562  -0.002262  -0.002031  -0.000141  -0.001993  -0.002643
    18  Cl   0.000929   0.004731   0.002080   0.000154   0.002060   0.004960
    19  H   -0.016614  -0.287766   0.015088   0.001238  -0.000886   0.003562
    20  Cl   0.014321   0.311388  -0.013320  -0.000893   0.000401   0.000635
    21  H   -0.016593   0.003477  -0.000883   0.001238   0.015139  -0.288286
    22  Cl   0.014299   0.000670   0.000400  -0.000893  -0.013332   0.311539
              13         14         15         16         17         18
     1  C    0.042813  -0.006379   0.005754  -0.004187  -0.007318  -0.026106
     2  C   -0.016425   0.001819  -0.001881   0.001351  -0.016025   0.029756
     3  C   -0.000591   0.001503  -0.000896   0.000480  -0.022969   0.022874
     4  C   -0.002151  -0.000383   0.000293   0.000030   0.045422  -0.046535
     5  C   -0.000588   0.001515  -0.000904   0.000487  -0.022907   0.022851
     6  C   -0.016460   0.001899  -0.001927   0.001391  -0.017056   0.030577
     7  F    0.007045   0.002226  -0.000321  -0.000261   0.001562   0.000929
     8  H    0.001399   0.003551  -0.001141   0.000104  -0.002262   0.004731
     9  H    0.000064  -0.000087   0.000008   0.000001  -0.002031   0.002080
    10  H   -0.000013   0.000011   0.000004  -0.000003  -0.000141   0.000154
    11  H    0.000065  -0.000088   0.000008   0.000000  -0.001993   0.002060
    12  H    0.001367   0.003560  -0.001154   0.000120  -0.002643   0.004960
    13  O    8.231451   0.250259  -0.088402  -0.091640   0.009037  -0.005823
    14  C    0.250259   4.828078   0.414294   0.417871  -0.005881  -0.001464
    15  H   -0.088402   0.414294   0.665429  -0.120144   0.000635   0.002998
    16  H   -0.091640   0.417871  -0.120144   0.665567   0.000721  -0.000728
    17  H    0.009037  -0.005881   0.000635   0.000721   0.825639   0.063096
    18  Cl  -0.005823  -0.001464   0.002998  -0.000728   0.063096  17.011087
    19  H    0.008349  -0.006611   0.002146  -0.001805   0.015270  -0.003647
    20  Cl  -0.005467   0.002450  -0.001020   0.001284  -0.005949   0.000626
    21  H    0.008328  -0.006528   0.002181  -0.001854   0.015307  -0.003652
    22  Cl  -0.005475   0.002449  -0.001038   0.001305  -0.005958   0.000623
              19         20         21         22
     1  C   -0.020063   0.065236  -0.017826   0.062797
     2  C    0.419738  -0.388472  -0.189665   0.045406
     3  C    0.010882   0.004238  -0.092111   0.048792
     4  C    0.042237  -0.024834   0.042271  -0.024690
     5  C   -0.092237   0.048902   0.009541   0.005546
     6  C   -0.191282   0.046640   0.417324  -0.386152
     7  F   -0.016614   0.014321  -0.016593   0.014299
     8  H   -0.287766   0.311388   0.003477   0.000670
     9  H    0.015088  -0.013320  -0.000883   0.000400
    10  H    0.001238  -0.000893   0.001238  -0.000893
    11  H   -0.000886   0.000401   0.015139  -0.013332
    12  H    0.003562   0.000635  -0.288286   0.311539
    13  O    0.008349  -0.005467   0.008328  -0.005475
    14  C   -0.006611   0.002450  -0.006528   0.002449
    15  H    0.002146  -0.001020   0.002181  -0.001038
    16  H   -0.001805   0.001284  -0.001854   0.001305
    17  H    0.015270  -0.005949   0.015307  -0.005958
    18  Cl  -0.003647   0.000626  -0.003652   0.000623
    19  H    1.074851  -0.104428   0.003320  -0.002404
    20  Cl  -0.104428  17.151287  -0.002385   0.002481
    21  H    0.003320  -0.002385   1.075573  -0.104951
    22  Cl  -0.002404   0.002481  -0.104951  17.151712
 Mulliken charges:
               1
     1  C   -0.150734
     2  C    0.249761
     3  C   -0.297153
     4  C   -0.200969
     5  C   -0.297818
     6  C    0.250071
     7  F   -0.234022
     8  H   -0.034352
     9  H    0.229175
    10  H    0.186690
    11  H    0.229179
    12  H   -0.034456
    13  O   -0.327142
    14  C    0.095937
    15  H    0.125077
    16  H    0.129909
    17  H    0.136442
    18  Cl  -0.111446
    19  H    0.131063
    20  Cl  -0.103121
    21  H    0.131036
    22  Cl  -0.103125
 Sum of Mulliken charges =  -0.00000
 Mulliken charges with hydrogens summed into heavy atoms:
               1
     1  C   -0.150734
     2  C    0.215409
     3  C   -0.067977
     4  C   -0.014279
     5  C   -0.068640
     6  C    0.215615
     7  F   -0.234022
    13  O   -0.327142
    14  C    0.350922
    18  Cl   0.024996
    20  Cl   0.027942
    22  Cl   0.027911
 APT charges:
               1
     1  C    0.753040
     2  C   -0.188078
     3  C   -0.003952
     4  C   -0.077403
     5  C   -0.003929
     6  C   -0.188155
     7  F   -0.745668
     8  H    0.118865
     9  H    0.067795
    10  H    0.061962
    11  H    0.067815
    12  H    0.118805
    13  O   -0.732084
    14  C    0.708806
    15  H    0.004858
    16  H    0.004829
    17  H    0.271299
    18  Cl  -0.255679
    19  H    0.259865
    20  Cl  -0.251486
    21  H    0.259915
    22  Cl  -0.251423
 Sum of APT charges =  -0.00000
 APT charges with hydrogens summed into heavy atoms:
               1
     1  C    0.753040
     2  C   -0.069212
     3  C    0.063844
     4  C   -0.015441
     5  C    0.063886
     6  C   -0.069349
     7  F   -0.745668
    13  O   -0.732084
    14  C    0.718492
    18  Cl   0.015620
    20  Cl   0.008379
    22  Cl   0.008492
 Electronic spatial extent (au):  <R**2>=           4145.8439
 Charge=              0.0000 electrons
 Dipole moment (field-independent basis, Debye):
    X=              0.8804    Y=             -0.0068    Z=             -0.0743  Tot=              0.8836
 Quadrupole moment (field-independent basis, Debye-Ang):
   XX=            -58.5030   YY=            -92.3732   ZZ=           -100.7821
   XY=              0.0123   XZ=              0.1382   YZ=             -0.0000
 Traceless Quadrupole moment (field-independent basis, Debye-Ang):
   XX=             25.3831   YY=             -8.4871   ZZ=            -16.8960
   XY=              0.0123   XZ=              0.1382   YZ=             -0.0000
 Octapole moment (field-independent basis, Debye-Ang**2):
  XXX=            122.2923  YYY=             -0.0613  ZZZ=             -7.2424  XYY=             -8.4786
  XXY=              0.0152  XXZ=             -0.0751  XZZ=             13.9235  YZZ=              0.0106
  YYZ=              6.3628  XYZ=             -0.0121
 Hexadecapole moment (field-independent basis, Debye-Ang**3):
 XXXX=          -1709.0824 YYYY=          -1478.8884 ZZZZ=          -1305.2450 XXXY=              0.1640
 XXXZ=              0.4441 YYYX=              0.0415 YYYZ=              0.0686 ZZZX=             -8.5181
 ZZZY=             -0.0241 XXYY=           -648.8592 XXZZ=           -664.0613 YYZZ=           -473.5781
 XXYZ=             -0.0360 YYXZ=              9.6844 ZZXY=             -0.0512
 N-N= 9.805257082673D+02 E-N=-6.296015727858D+03  KE= 1.829760045869D+03
  Exact polarizability: 154.860   0.002 133.043  -0.939  -0.003 101.865
 Approx polarizability: 145.503  -0.005 127.915  -0.369  -0.001  96.582
 D2PCM: PCM CHGder 2nd derivatives, FixD1E=F FixD2E=F DoIter=F DoCFld=F I1PDM=0
 Calling FoFJK, ICntrl=    100127 FMM=F ISym2X=0 I1Cent= 0 IOpClX= 0 NMat=1 NMatS=1 NMatT=0.
 ***** Axes restored to original set *****
 -------------------------------------------------------------------
 Center     Atomic                   Forces (Hartrees/Bohr)
 Number     Number              X              Y              Z
 -------------------------------------------------------------------
      1        6          -0.082296169    0.000117576   -0.047510106
      2        6          -0.053137379    0.001843409    0.015043435
      3        6           0.002764428    0.000046945    0.037367603
      4        6           0.039191181   -0.000345988    0.022627178
      5        6           0.033749366    0.000046952   -0.016281729
      6        6          -0.013531380    0.001842648   -0.053541476
      7        9           0.019900352   -0.000010309    0.011489903
      8        1          -0.060966707    0.002766547    0.036385485
      9        1          -0.001797520    0.000142396    0.073761737
     10        1           0.064273895   -0.000012557    0.037109141
     11        1           0.062979444    0.000142409   -0.038440128
     12        1           0.001025896    0.002764951   -0.070991050
     13        8           0.017574252   -0.000050544    0.010142969
     14        6           0.059802356   -0.000001672    0.034852762
     15        1          -0.039052762    0.071342659   -0.022711496
     16        1          -0.039062392   -0.071323864   -0.022717076
     17        1          -0.116575229   -0.759430235   -0.067311306
     18       17           0.116239947    0.758496520    0.067117143
     19        1           0.211715013    0.378864171   -0.636277239
     20       17          -0.218252842   -0.383054725    0.634815700
     21        1          -0.445231277    0.378860792    0.501433352
     22       17           0.440687528   -0.383048079   -0.506364803
 -------------------------------------------------------------------
 Cartesian Forces:  Max     0.759430235 RMS     0.234707080
 -----------------------------------------------------------------------------------------------
                       Internal Coordinate Forces (Hartree/Bohr or radian)
  Cent   Atom   N1       Length/X         N2         Alpha/Y        N3         Beta/Z          J
 -----------------------------------------------------------------------------------------------
      1  C 
      2  C        1   0.043724(     1)
      3  C        2   0.159869(     2)      1   0.184141(    22)
      4  C        3   0.222302(     3)      2   0.434690(    23)      1   0.015354(    42)     0
      5  C        4   0.178571(     4)      3   0.453090(    24)      2   0.020262(    43)     0
      6  C        5   0.072413(     5)      4   0.245213(    25)      3   0.010056(    44)     0
      7  F        1  -0.008942(     6)      2   0.000104(    26)      3   0.005019(    45)     0
      8  H        2   0.070991(     7)      3  -0.001942(    27)      4   0.004528(    46)     0
      9  H        3   0.073762(     8)      4   0.003397(    28)      5   0.000233(    47)     0
     10  H        4   0.074217(     9)      5   0.000001(    29)      6  -0.000021(    48)     0
     11  H        5   0.073762(    10)      6  -0.003402(    30)      1   0.000233(    49)     0
     12  H        6   0.070991(    11)      1   0.001939(    31)      2   0.004525(    50)     0
     13  O        7   0.000856(    12)      1  -0.000023(    32)      3   0.000000(    51)     0
     14  C       13   0.021147(    13)      1   0.000103(    33)      2  -0.000000(    52)     0
     15  H       14   0.084373(    14)      1   0.006525(    34)      2   0.000118(    53)     0
     16  H       14   0.084362(    15)      1   0.006561(    35)      2  -0.000118(    54)     0
     17  H        7  -0.000852(    16)      1   0.001556(    36)      2  -0.000006(    55)     0
     18  Cl      17   0.770281(    17)      7  -0.000807(    37)      1  -0.000003(    56)     0
     19  H        7   0.004882(    18)      1   0.034507(    38)      2  -0.015080(    57)     0
     20  Cl      19   0.772862(    19)      7   0.010035(    39)      1  -0.001331(    58)     0
     21  H        7   0.004878(    20)      1   0.034423(    40)      2   0.015088(    59)     0
     22  Cl      21   0.772850(    21)      7   0.009913(    41)      1   0.001335(    60)     0
 -----------------------------------------------------------------------------------------------
 Internal  Forces:  Max     0.772862307 RMS     0.201473610

 GradGradGradGradGradGradGradGradGradGradGradGradGradGradGradGradGradGrad
 Berny optimization.
 Search for a local minimum.
 Step number   1 out of a maximum of   31
 All quantities printed in internal units (Hartrees-Bohrs-Radians)
 Second derivative matrix not updated -- analytic derivatives used.
 The second derivative matrix:
                          d1        d2        d3        d4        d5
           d1           0.89870
           d2          -0.01703   1.02064
           d3          -0.36204   0.41416   1.58113
           d4          -0.16331   0.01131   0.39984   1.00904
           d5           0.04211  -0.19333  -0.37908  -0.00132   0.97048
           d6           0.05650   0.05793   0.02869  -0.02781  -0.05506
           d7           0.00044   0.00188  -0.00081   0.00222   0.00212
           d8          -0.00054   0.00412   0.00475  -0.00017  -0.00037
           d9          -0.00088  -0.00089   0.00413   0.00501   0.00087
           d10          0.00315   0.00224  -0.00071   0.00160   0.00152
           d11         -0.01799  -0.01542   0.00267   0.01718   0.01942
           d12          0.00056   0.00068   0.00041  -0.00016  -0.00045
           d13         -0.00001  -0.00001  -0.00001  -0.00001  -0.00000
           d14          0.00004   0.00005   0.00003  -0.00001  -0.00003
           d15          0.00004   0.00005   0.00003  -0.00001  -0.00003
           d16         -0.00059  -0.00074  -0.00035   0.00023   0.00043
           d17          0.00006   0.00007   0.00003  -0.00003  -0.00005
           d18          0.00935   0.00931   0.00065  -0.00871  -0.00940
           d19          0.00540   0.00564   0.00073  -0.00466  -0.00515
                          d6        d7        d8        d9        d10
           d6           0.33009
           d7          -0.00666   0.57815
           d8           0.00100   0.00027   0.57442
           d9           0.00041   0.00011   0.00042   0.57403
           d10          0.00100   0.00009   0.00021   0.00042   0.57443
           d11         -0.00666  -0.00002   0.00009   0.00011   0.00027
           d12         -0.00121  -0.00002   0.00004   0.00002   0.00004
           d13          0.00009   0.00000  -0.00000  -0.00000  -0.00000
           d14         -0.00012  -0.00000   0.00000   0.00000   0.00000
           d15         -0.00012  -0.00000   0.00000   0.00000   0.00000
           d16          0.00229   0.00008  -0.00004  -0.00002  -0.00004
           d17         -0.00069   0.00003   0.00001   0.00001   0.00001
           d18          0.02366  -0.00538  -0.00003   0.00007  -0.00003
           d19          0.00863  -0.00273   0.00004   0.00008   0.00004
                          d11       d12       d13       d14       d15
           d11          0.57816
           d12         -0.00002   0.00400
           d13          0.00000   0.00039   0.95690
           d14         -0.00000   0.00012   0.03165   0.57487
           d15         -0.00000   0.00011   0.03163   0.00150   0.57489
           d16          0.00008  -0.00055  -0.00002  -0.00001  -0.00001
           d17          0.00003  -0.00000  -0.00006   0.00002   0.00001
           d18         -0.00539  -0.00095   0.00005  -0.00005  -0.00005
           d19         -0.00274  -0.00012  -0.00008   0.00001   0.00002
                          d16       d17       d18       d19
           d16          0.00397
           d17          0.00232   2.45714
           d18          0.00013  -0.00013   0.02525
           d19         -0.00013  -0.00002   0.01284   4.93957
 ITU=  0
     Eigenvalues ---    0.00341   0.00449   0.02324   0.31707   0.57119
     Eigenvalues ---    0.57338   0.57355   0.57406   0.57468   0.57584
     Eigenvalues ---    0.57798   0.58322   0.77050   0.81372   0.96209
     Eigenvalues ---    1.14055   2.19010   2.45714   4.93966
 RFO step:  Lambda=-4.23704730D-01 EMin= 3.41484022D-03
 Linear search not attempted -- first point.
 Maximum step size (   0.300) exceeded in Quadratic search.
    -- Step size scaled by   0.716
 Variable       Old X    -DE/DX   Delta X   Delta X   Delta X     New X
                                 (Linear)    (Quad)   (Total)
    d1        2.45664   0.04372   0.00000   0.05201   0.05201   2.50865
    d2        2.45664   0.15987   0.00000   0.06745   0.06745   2.52410
    d3        2.45664   0.22230   0.00000   0.07201   0.07201   2.52865
    d4        2.45664   0.17857   0.00000   0.07374   0.07374   2.53039
    d5        2.45664   0.07241   0.00000   0.06365   0.06365   2.52030
    d6        2.64562  -0.00894   0.00000  -0.01342  -0.01342   2.63220
    d7        1.88973   0.07099   0.00000   0.05051   0.05051   1.94024
    d8        1.88973   0.07376   0.00000   0.05228   0.05228   1.94200
    d9        1.88973   0.07422   0.00000   0.05255   0.05255   1.94227
   d10        1.88973   0.07376   0.00000   0.05235   0.05235   1.94208
   d11        1.88973   0.07099   0.00000   0.05018   0.05018   1.93991
   d12        5.29123   0.00086   0.00000   0.00124   0.00124   5.29247
   d13        2.26767   0.02115   0.00000   0.00822   0.00822   2.27589
   d14        1.88973   0.08437   0.00000   0.06009   0.06009   1.94982
   d15        1.88973   0.08436   0.00000   0.06009   0.06009   1.94981
   d16        4.34637  -0.00085   0.00000  -0.00222  -0.00222   4.34415
   d17        1.70075   0.77028   0.00000   0.19131   0.19131   1.89206
   d18        4.34637   0.00488   0.00000   0.00699   0.00699   4.35336
   d19        1.70075   0.77286   0.00000   0.10316   0.10316   1.80391
         Item               Value     Threshold  Converged?
 Maximum Force            0.772862     0.002500     NO 
 RMS     Force            0.266155     0.001667     NO 
 Maximum Displacement     0.191311     0.010000     NO 
 RMS     Displacement     0.068825     0.006667     NO 
 Predicted change in Energy=-2.137736D-01
 GradGradGradGradGradGradGradGradGradGradGradGradGradGradGradGradGradGrad

 ---------------------------------------------------------------------------------------------------
                            Z-MATRIX (ANGSTROMS AND DEGREES)
   CD    Cent   Atom    N1       Length/X        N2       Alpha/Y        N3        Beta/Z          J
 ---------------------------------------------------------------------------------------------------
      1      1  C 
      2      2  C        1   1.327521(     1)
      3      3  C        2   1.335694(     2)      1  120.000(    22)
      4      4  C        3   1.338106(     3)      2  120.000(    23)      1    0.000(    42)      0
      5      5  C        4   1.339023(     4)      3  120.000(    24)      2    0.000(    43)      0
      6      6  C        5   1.333684(     5)      4  120.000(    25)      3    0.000(    44)      0
      7      7  F        1   1.392900(     6)      2  120.000(    26)      3  180.000(    45)      0
      8      8  H        2   1.026731(     7)      3  120.000(    27)      4  180.000(    46)      0
      9      9  H        3   1.027663(     8)      4  120.000(    28)      5  180.000(    47)      0
     10     10  H        4   1.027806(     9)      5  120.000(    29)      6  180.000(    48)      0
     11     11  H        5   1.027705(    10)      6  120.000(    30)      1  180.000(    49)      0
     12     12  H        6   1.026557(    11)      1  120.000(    31)      2  180.000(    50)      0
     13     13  O        7   2.800656(    12)      1  179.900(    32)      3  180.000(    51)      0
     14     14  C       13   1.204351(    13)      1  179.900(    33)      2  180.000(    52)      0
     15     15  H       14   1.031800(    14)      1  120.000(    34)      2   90.000(    53)      0
     16     16  H       14   1.031796(    15)      1  120.000(    35)      2  -90.000(    54)      0
     17     17  H        7   2.298826(    16)      1  100.000(    36)      2   90.000(    55)      0
     18     18  Cl      17   1.001237(    17)      7  160.000(    37)      1    0.000(    56)      0
     19     19  H        7   2.303700(    18)      1  100.000(    38)      2  -30.000(    57)      0
     20     20  Cl      19   0.954587(    19)      7  160.000(    39)      1    0.000(    58)      0
     21     21  H        7   2.303700(    20)      1  100.000(    40)      2 -150.000(    59)      0
     22     22  Cl      21   0.954587(    21)      7  160.000(    41)      1    0.000(    60)      0
 ---------------------------------------------------------------------------------------------------
                         Z-Matrix orientation:                         
 ---------------------------------------------------------------------
 Center     Atomic      Atomic             Coordinates (Angstroms)
 Number     Number       Type             X           Y           Z
 ---------------------------------------------------------------------
      1          6           0        0.000000    0.000000    0.000000
      2          6           0        0.000000    0.000000    1.327521
      3          6           0        1.156745    0.000000    1.995368
      4          6           0        2.315579    0.000000    1.326314
      5          6           0        2.315579    0.000000   -0.012709
      6          6           0        1.160575    0.000000   -0.679551
      7          9           0       -1.206287   -0.000000   -0.696450
      8          1           0       -0.889175   -0.000000    1.840886
      9          1           0        1.156745   -0.000000    3.023031
     10          1           0        3.205685   -0.000000    1.840217
     11          1           0        3.205597   -0.000000   -0.526561
     12          1           0        1.154299   -0.000000   -1.706088
     13          8           0       -3.629278   -0.000000   -2.101009
     14          6           0       -4.670520   -0.000000   -2.706218
     15          1           0       -5.116901    0.893565   -2.964863
     16          1           0       -5.116899   -0.893561   -2.964862
     17          1           0       -1.551993    2.263901   -0.896044
     18         17           0       -1.401423    3.249928   -0.809112
     19          1           0       -2.535103   -1.134351    0.805060
     20         17           0       -2.798617   -1.604393    1.593005
     21          1           0       -0.570349   -1.134351   -2.597993
     22         17           0       -0.019726   -1.604393   -3.220176
 ---------------------------------------------------------------------
                    Distance matrix (angstroms):
                    1          2          3          4          5
     1  C    0.000000
     2  C    1.327521   0.000000
     3  C    2.306415   1.335694   0.000000
     4  C    2.668523   2.315579   1.338106   0.000000
     5  C    2.315614   2.675467   2.318462   1.339023   0.000000
     6  C    1.344888   2.318463   2.674921   2.314634   1.333684
     7  F    1.392900   2.356180   3.581871   4.061418   3.587623
     8  H    2.044381   1.026731   2.051744   3.245802   3.702197
     9  H    3.236785   2.052514   1.027663   2.054688   3.249402
    10  H    3.696325   3.246425   2.054806   1.027806   2.055632
    11  H    3.248557   3.703171   3.249296   2.055549   1.027705
    12  H    2.059890   3.245796   3.701457   3.247158   2.053315
    13  O    4.193555   4.992642   6.299708   6.862061   6.300978
    14  C    5.397904   6.171289   7.487451   8.066405   7.487361
    15  H    5.980931   6.738374   8.047420   8.628697   8.047075
    16  H    5.980929   6.738372   8.047418   8.628695   8.047073
    17  H    2.887356   3.532445   4.563197   5.002223   4.567674
    18  Cl   3.630520   4.134152   4.997135   5.379422   5.001239
    19  H    2.891647   2.826033   4.041451   5.008750   5.048229
    20  Cl   3.597777   3.236791   4.287291   5.366582   5.595301
    21  H    2.891647   4.125738   5.036722   5.001552   4.037206
    22  Cl   3.597777   4.822449   5.582119   5.357080   4.279670
                    6          7          8          9         10
     6  C    0.000000
     7  F    2.366922   0.000000
     8  H    3.248704   2.557075   0.000000
     9  H    3.702584   4.406638   2.362891   0.000000
    10  H    3.245259   5.089222   4.094860   2.365841   0.000000
    11  H    2.050737   4.415154   4.729901   4.098463   2.366779
    12  H    1.026557   2.567438   4.093509   4.729120   4.096885
    13  O    4.996322   2.800656   4.800698   7.011548   7.889866
    14  C    6.173252   4.005006   5.913943   8.171983   9.094211
    15  H    6.740015   4.608368   6.462766   8.718484   9.651564
    16  H    6.740013   4.608365   6.462763   8.718481   9.651561
    17  H    3.539794   2.298826   3.613220   5.274624   5.936992
    18  Cl   4.140368   3.257729   4.224561   5.638402   6.229480
    19  H    4.141118   2.303700   2.251392   4.453750   5.942638
    20  Cl   4.838780   3.217328   2.506291   4.501549   6.219874
    21  H    2.821927   2.303700   4.592608   5.988783   5.936573
    22  Cl   3.228307   3.217328   5.379997   6.552541   6.211677
                   11         12         13         14         15
    11  H    0.000000
    12  H    2.366243   0.000000
    13  O    7.013873   4.799852   0.000000
    14  C    8.172155   5.910057   1.204351   0.000000
    15  H    8.718242   6.458399   1.938484   1.031800   0.000000
    16  H    8.718240   6.458397   1.938481   1.031796   1.787126
    17  H    5.281707   3.620144   3.300349   4.257604   4.343547
    18  Cl   5.645042   4.230640   4.146609   4.984780   4.899437
    19  H    6.001300   4.604813   3.305935   4.263312   4.999044
    20  Cl   6.566371   5.392925   4.112154   4.955947   5.691080
    21  H    4.453690   2.248702   3.300120   4.255568   4.991810
    22  Cl   4.498038   2.498975   4.105543   4.946525   5.682092
                   16         17         18         19         20
    16  H    0.000000
    17  H    5.192122   0.000000
    18  Cl   5.968293   1.001237   0.000000
    19  H    4.575583   3.925350   4.807565   0.000000
    20  Cl   5.162737   4.765830   5.593456   0.954587   0.000000
    21  H    4.567678   3.925350   4.807565   3.929507   4.769757
    22  Cl   5.152828   4.765830   5.593456   4.769757   5.557782
                   21         22
    21  H    0.000000
    22  Cl   0.954587   0.000000
 Stoichiometry    C7H10Cl3FO
 Framework group  C1[X(C7H10Cl3FO)]
 Deg. of freedom    60
 Full point group                 C1      NOp   1
 Largest Abelian subgroup         C1      NOp   1
 Largest concise Abelian subgroup C1      NOp   1
                         Standard orientation:                         
 ---------------------------------------------------------------------
 Center     Atomic      Atomic             Coordinates (Angstroms)
 Number     Number       Type             X           Y           Z
 ---------------------------------------------------------------------
      1          6           0       -1.012619    0.005570   -0.006052
      2          6           0       -1.674184    1.156502   -0.006295
      3          6           0       -3.009875    1.159051   -0.006642
      4          6           0       -3.681138    0.001495   -0.006745
      5          6           0       -3.013841   -1.159408   -0.006500
      6          6           0       -1.680160   -1.161954   -0.006153
      7          9           0        0.380279    0.002912   -0.005690
      8          1           0       -1.159122    2.044695   -0.006216
      9          1           0       -3.522007    2.050012   -0.006830
     10          1           0       -4.708942    0.003457   -0.007012
     11          1           0       -3.529391   -2.048444   -0.006578
     12          1           0       -1.163148   -2.048812   -0.005964
     13          8           0        3.180916   -0.007321   -0.004961
     14          6           0        4.385253   -0.013125   -0.004648
     15          1           0        4.900918   -0.014857    0.889051
     16          1           0        4.901380   -0.014967   -0.898075
     17          1           0        0.778877    0.002290    2.258315
     18         17           0        0.604758    0.002683    3.244296
     19          1           0        0.784356    1.966828   -1.140057
     20         17           0        0.620270    2.781251   -1.610193
     21          1           0        0.776857   -1.962672   -1.139816
     22         17           0        0.609663   -2.776520   -1.609851
 ---------------------------------------------------------------------
 Rotational constants (GHZ):           0.4254042           0.3252612           0.3111351
 Standard basis: 6-311++G(d,p) (5D, 7F)
 There are   370 symmetry adapted cartesian basis functions of A   symmetry.
 There are   358 symmetry adapted basis functions of A   symmetry.
   358 basis functions,   573 primitive gaussians,   370 cartesian basis functions
    60 alpha electrons       60 beta electrons
       nuclear repulsion energy       962.7218206232 Hartrees.
 NAtoms=   22 NActive=   22 NUniq=   22 SFac= 1.00D+00 NAtFMM=   60 NAOKFM=F Big=F
 Integral buffers will be    131072 words long.
 Raffenetti 2 integral format.
 Two-electron integral symmetry is turned on.
 Force inversion solution in PCM.
 ------------------------------------------------------------------------------
 Polarizable Continuum Model (PCM)
 =================================
 Model                : PCM.
 Atomic radii         : UFF (Universal Force Field).
 Polarization charges : Total charges.
 Charge compensation  : None.
 Solution method      : Matrix inversion.
 Cavity type          : Scaled VdW (van der Waals Surface) (Alpha=1.100).
 Cavity algorithm     : GePol (No added spheres)
                        Default sphere list used, NSphG=   22.
                        Lebedev-Laikov grids with approx.  5.0 points / Ang**2.
                        Smoothing algorithm: York/Karplus (Gamma=1.0000).
                        Polarization charges: spherical gaussians, with
                                              point-specific exponents (IZeta= 3).
                        Self-potential: point-specific (ISelfS= 7).
                        Self-field    : sphere-specific E.n sum rule (ISelfD= 2).
 1st derivatives      : Analytical E(r).r(x)/FMM algorithm (CHGder, D1EAlg=3).
                        Cavity 1st derivative terms included.
 Solvent              : Water, Eps=  78.355300 Eps(inf)=   1.777849
 ------------------------------------------------------------------------------
 One-electron integrals computed using PRISM.
 NBasis=   358 RedAO= T EigKep=  3.68D-06  NBF=   358
 NBsUse=   357 1.00D-06 EigRej=  4.67D-07 NBFU=   357
 Initial guess from the checkpoint file:  "model_H3.chk"
 B after Tr=     0.000000   -0.000000   -0.000000
         Rot=    0.999999    0.000030    0.000687    0.001382 Ang=   0.18 deg.
 ExpMin= 3.60D-02 ExpMax= 1.06D+05 ExpMxC= 3.62D+03 IAcc=3 IRadAn=         5 AccDes= 0.00D+00
 Harris functional with IExCor= 1009 and IRadAn=       5 diagonalized for initial guess.
 HarFok:  IExCor= 1009 AccDes= 0.00D+00 IRadAn=         5 IDoV= 1 UseB2=F ITyADJ=14
 ICtDFT=  3500011 ScaDFX=  1.000000  1.000000  1.000000  1.000000
 FoFCou: FMM=F IPFlag=           0 FMFlag=      100000 FMFlg1=           0
         NFxFlg=           0 DoJE=T BraDBF=F KetDBF=T FulRan=T
         wScrn=  0.000000 ICntrl=       500 IOpCl=  0 I1Cent=   200000004 NGrid=           0
         NMat0=    1 NMatS0=      1 NMatT0=    0 NMatD0=    1 NMtDS0=    0 NMtDT0=    0
 Petite list used in FoFCou.
 Requested convergence on RMS density matrix=1.00D-08 within 128 cycles.
 Requested convergence on MAX density matrix=1.00D-06.
 Requested convergence on             energy=1.00D-06.
 No special actions if energy rises.
 Inv3:  Mode=1 IEnd=    15201003.
 Iteration    1 A*A^-1 deviation from unit magnitude is 7.11D-15 for   2243.
 Iteration    1 A*A^-1 deviation from orthogonality  is 3.33D-15 for   2251   2131.
 Iteration    1 A^-1*A deviation from unit magnitude is 7.55D-15 for   2243.
 Iteration    1 A^-1*A deviation from orthogonality  is 3.33D-15 for   2251   2131.
 Error on total polarization charges =  0.01791
 SCF Done:  E(RM062X) =  -1827.96990410     A.U. after   13 cycles
            NFock= 13  Conv=0.48D-08     -V/T= 2.0001
 DoSCS=F DFT=T ScalE2(SS,OS)=  1.000000  1.000000
 Range of M.O.s used for correlation:     1   357
 NBasis=   358 NAE=    60 NBE=    60 NFC=     0 NFV=     0
 NROrb=    357 NOA=    60 NOB=    60 NVA=   297 NVB=   297

 **** Warning!!: The largest alpha MO coefficient is  0.14495380D+03

 Symmetrizing basis deriv contribution to polar:
 IMax=3 JMax=2 DiffMx= 0.00D+00
 D1PCM: PCM CHGder 1st derivatives, ID1Alg=3 FixD1E=F DoIter=F DoCFld=F I1PDM=0.
 Calling FoFJK, ICntrl=      2127 FMM=F ISym2X=0 I1Cent= 0 IOpClX= 0 NMat=1 NMatS=1 NMatT=0.
 ***** Axes restored to original set *****
 -------------------------------------------------------------------
 Center     Atomic                   Forces (Hartrees/Bohr)
 Number     Number              X              Y              Z
 -------------------------------------------------------------------
      1        6          -0.034323057    0.000106524   -0.037264607
      2        6          -0.030271503    0.001821276    0.011376369
      3        6           0.007371472    0.000043691    0.012940778
      4        6           0.015351339   -0.000335851    0.010262365
      5        6           0.014175742    0.000051724   -0.001988041
      6        6          -0.019282992    0.001891077   -0.022734015
      7        9           0.018881813    0.000183684    0.010949846
      8        1          -0.037183574    0.002738984    0.022750464
      9        1          -0.001551221    0.000133243    0.045245733
     10        1           0.039430219   -0.000012133    0.022773622
     11        1           0.038462960    0.000139657   -0.023945814
     12        1           0.000848271    0.002808697   -0.043427321
     13        8           0.007686170   -0.000026524    0.004389496
     14        6           0.042677422    0.000004684    0.024939477
     15        1          -0.025501667    0.043400468   -0.014856373
     16        1          -0.025511502   -0.043386386   -0.014861711
     17        1          -0.061747386   -0.400261987   -0.035657641
     18       17           0.061439482    0.398972742    0.035476533
     19        1           0.150778132    0.270250041   -0.454418142
     20       17          -0.157052008   -0.274317654    0.452788449
     21        1          -0.318155199    0.270210709    0.357793763
     22       17           0.313477087   -0.274416664   -0.362533230
 -------------------------------------------------------------------
 Cartesian Forces:  Max     0.454418142 RMS     0.154121206
 -----------------------------------------------------------------------------------------------
                       Internal Coordinate Forces (Hartree/Bohr or radian)
  Cent   Atom   N1       Length/X         N2         Alpha/Y        N3         Beta/Z          J
 -----------------------------------------------------------------------------------------------
      1  C 
      2  C        1   0.033988(     1)
      3  C        2   0.082407(     2)      1   0.070527(    22)
      4  C        3   0.106599(     3)      2   0.193178(    23)      1   0.016240(    42)     0
      5  C        4   0.091362(     4)      3   0.204842(    24)      2   0.021170(    43)     0
      6  C        5   0.048307(     5)      4   0.117191(    25)      3   0.010476(    44)     0
      7  F        1  -0.008043(     6)      2  -0.000791(    26)      3   0.005740(    45)     0
      8  H        2   0.043577(     7)      3  -0.002155(    27)      4   0.004602(    46)     0
      9  H        3   0.045246(     8)      4   0.003012(    28)      5   0.000224(    47)     0
     10  H        4   0.045534(     9)      5   0.000014(    29)      6  -0.000020(    48)     0
     11  H        5   0.045283(    10)      6  -0.002925(    30)      1   0.000235(    49)     0
     12  H        6   0.043421(    11)      1   0.002161(    31)      2   0.004719(    50)     0
     13  O        7   0.000757(    12)      1  -0.000060(    32)      3  -0.000000(    51)     0
     14  C       13   0.009608(    13)      1   0.000101(    33)      2  -0.000000(    52)     0
     15  H       14   0.052343(    14)      1   0.007525(    34)      2   0.000117(    53)     0
     16  H       14   0.052336(    15)      1   0.007557(    35)      2  -0.000116(    54)     0
     17  H        7  -0.001208(    16)      1   0.001389(    36)      2   0.000005(    55)     0
     18  Cl      17   0.405231(    17)      7  -0.001112(    37)      1  -0.000002(    56)     0
     19  H        7   0.004560(    18)      1   0.034196(    38)      2  -0.015383(    57)     0
     20  Cl      19   0.552174(    19)      7   0.010076(    39)      1  -0.001382(    58)     0
     21  H        7   0.004692(    20)      1   0.035191(    40)      2   0.015919(    59)     0
     22  Cl      21   0.552236(    21)      7   0.010408(    41)      1   0.001420(    60)     0
 -----------------------------------------------------------------------------------------------
 Internal  Forces:  Max     0.552235590 RMS     0.123951534

 GradGradGradGradGradGradGradGradGradGradGradGradGradGradGradGradGradGrad
 Berny optimization.
 Search for a local minimum.
 Step number   2 out of a maximum of   31
 All quantities printed in internal units (Hartrees-Bohrs-Radians)
 Update second derivatives using D2CorN and points    1    2
 DE= -3.04D-01 DEPred=-2.14D-01 R= 1.42D+00
 TightC=F SS=  1.41D+00  RLast= 3.00D-01 DXNew= 5.0454D-01 9.0000D-01
 Trust test= 1.42D+00 RLast= 3.00D-01 DXMaxT set to 5.05D-01
 The second derivative matrix:
                          d1        d2        d3        d4        d5
           d1           0.89898
           d2          -0.01925   1.01438
           d3          -0.36556   0.40601   1.57085
           d4          -0.16580   0.00440   0.39086   1.00141
           d5           0.04207  -0.19655  -0.38392  -0.00491   0.96996
           d6           0.05641   0.05848   0.02957  -0.02719  -0.05507
           d7           0.00001  -0.00120  -0.00520  -0.00120   0.00121
           d8          -0.00101   0.00091   0.00018  -0.00374  -0.00133
           d9          -0.00136  -0.00413  -0.00048   0.00141  -0.00011
           d10          0.00268  -0.00098  -0.00529  -0.00197   0.00055
           d11         -0.01842  -0.01849  -0.00170   0.01378   0.01852
           d12          0.00057   0.00063   0.00032  -0.00022  -0.00045
           d13         -0.00002  -0.00044  -0.00064  -0.00048  -0.00007
           d14         -0.00062  -0.00381  -0.00541  -0.00430  -0.00130
           d15         -0.00063  -0.00381  -0.00541  -0.00430  -0.00130
           d16         -0.00058  -0.00063  -0.00018   0.00036   0.00044
           d17         -0.02977  -0.04816  -0.05565  -0.05297  -0.03798
           d18          0.00931   0.00891   0.00006  -0.00915  -0.00950
           d19         -0.07771  -0.10729  -0.12209  -0.12824  -0.10763
                          d6        d7        d8        d9        d10
           d6           0.33012
           d7          -0.00656   0.57704
           d8           0.00110  -0.00090   0.57319
           d9           0.00052  -0.00107  -0.00082   0.57278
           d10          0.00110  -0.00108  -0.00102  -0.00083   0.57320
           d11         -0.00656  -0.00113  -0.00107  -0.00107  -0.00089
           d12         -0.00121  -0.00003   0.00002   0.00001   0.00002
           d13          0.00009  -0.00012  -0.00013  -0.00013  -0.00013
           d14          0.00004  -0.00147  -0.00154  -0.00156  -0.00154
           d15          0.00004  -0.00147  -0.00154  -0.00156  -0.00154
           d16          0.00229   0.00012  -0.00001   0.00001  -0.00001
           d17          0.00694  -0.03155  -0.03274  -0.03295  -0.03279
           d18          0.02367  -0.00552  -0.00017  -0.00008  -0.00017
           d19          0.03003  -0.08486  -0.08499  -0.08540  -0.08512
                          d11       d12       d13       d14       d15
           d11          0.57707
           d12         -0.00003   0.00401
           d13         -0.00012   0.00039   0.95689
           d14         -0.00146   0.00010   0.03148   0.57295
           d15         -0.00146   0.00009   0.03146  -0.00042   0.57297
           d16          0.00012  -0.00055  -0.00002   0.00003   0.00003
           d17         -0.03134  -0.00071  -0.00497  -0.03811  -0.03811
           d18         -0.00553  -0.00096   0.00004  -0.00023  -0.00023
           d19         -0.08433  -0.00210  -0.01332  -0.09799  -0.09797
                          d16       d17       d18       d19
           d16          0.00397
           d17          0.00364   2.23386
           d18          0.00014  -0.00443   0.02523
           d19          0.00344  -0.36695   0.00151   4.60879
 ITU=  1  0
     Eigenvalues ---    0.00341   0.00448   0.02322   0.31661   0.53969
     Eigenvalues ---    0.57292   0.57338   0.57360   0.57407   0.57527
     Eigenvalues ---    0.57727   0.58302   0.76938   0.78775   0.96169
     Eigenvalues ---    1.13896   2.11581   2.25611   4.69100
 RFO step:  Lambda=-5.38645425D-02 EMin= 3.41383158D-03
 Quartic linear search produced a step of  0.28710.
 Variable       Old X    -DE/DX   Delta X   Delta X   Delta X     New X
                                 (Linear)    (Quad)   (Total)
    d1        2.50865   0.03399   0.01493  -0.06876  -0.05383   2.45482
    d2        2.52410   0.08241   0.01937  -0.04126  -0.02190   2.50220
    d3        2.52865   0.10660   0.02067  -0.03382  -0.01315   2.51551
    d4        2.53039   0.09136   0.02117  -0.03866  -0.01749   2.51290
    d5        2.52030   0.04831   0.01827  -0.06721  -0.04894   2.47136
    d6        2.63220  -0.00804  -0.00385   0.04148   0.03763   2.66983
    d7        1.94024   0.04358   0.01450  -0.06335  -0.04885   1.89139
    d8        1.94200   0.04525   0.01501  -0.06567  -0.05066   1.89134
    d9        1.94227   0.04553   0.01509  -0.06587  -0.05079   1.89148
   d10        1.94208   0.04528   0.01503  -0.06548  -0.05045   1.89163
   d11        1.93991   0.04342   0.01441  -0.06308  -0.04867   1.89124
   d12        5.29247   0.00076   0.00036  -0.01870  -0.01835   5.27413
   d13        2.27589   0.00961   0.00236  -0.00125   0.00111   2.27700
   d14        1.94982   0.05234   0.01725  -0.07498  -0.05773   1.89209
   d15        1.94981   0.05234   0.01725  -0.07497  -0.05772   1.89209
   d16        4.34415  -0.00121  -0.00064   0.03275   0.03212   4.37627
   d17        1.89206   0.40523   0.05492  -0.00310   0.05182   1.94389
   d18        4.35336   0.00456   0.00201  -0.10552  -0.10351   4.24985
   d19        1.80391   0.55217   0.02962   0.05498   0.08459   1.88850
         Item               Value     Threshold  Converged?
 Maximum Force            0.552174     0.002500     NO 
 RMS     Force            0.164591     0.001667     NO 
 Maximum Displacement     0.103515     0.010000     NO 
 RMS     Displacement     0.050630     0.006667     NO 
 Predicted change in Energy=-9.715068D-03
 GradGradGradGradGradGradGradGradGradGradGradGradGradGradGradGradGradGrad

 ---------------------------------------------------------------------------------------------------
                            Z-MATRIX (ANGSTROMS AND DEGREES)
[...]
 Alpha virt. eigenvalues --    0.23935   0.24323   0.25400   0.27372   0.27813
 Alpha virt. eigenvalues --    0.28702   0.30395   0.31070   0.31391   0.31494
 Alpha virt. eigenvalues --    0.32350   0.32722   0.33457   0.36290   0.37385
 Alpha virt. eigenvalues --    0.38308   0.39712   0.40437   0.40833   0.41499
 Alpha virt. eigenvalues --    0.44093   0.44708   0.46458   0.47483   0.48472
 Alpha virt. eigenvalues --    0.49603   0.49801   0.50293   0.51290   0.52413
 Alpha virt. eigenvalues --    0.52934   0.53252   0.53617   0.54848   0.55194
 Alpha virt. eigenvalues --    0.55706   0.56858   0.57217   0.58400   0.58643
 Alpha virt. eigenvalues --    0.59756   0.60080   0.61336   0.61837   0.62454
 Alpha virt. eigenvalues --    0.63212   0.63926   0.67637   0.68209   0.68890
 Alpha virt. eigenvalues --    0.70681   0.71743   0.72025   0.73536   0.74211
 Alpha virt. eigenvalues --    0.76656   0.77243   0.77829   0.81308   0.82023
 Alpha virt. eigenvalues --    0.83283   0.83587   0.84348   0.85478   0.86899
 Alpha virt. eigenvalues --    0.88261   0.89143   0.90909   0.91040   0.91760
 Alpha virt. eigenvalues --    0.92582   0.92766   0.93900   0.94506   0.95816
 Alpha virt. eigenvalues --    0.97145   0.97315   0.97787   0.98507   0.99489
 Alpha virt. eigenvalues --    0.99796   1.03007   1.03913   1.04711   1.05829
 Alpha virt. eigenvalues --    1.06145   1.06876   1.09580   1.12552   1.14661
 Alpha virt. eigenvalues --    1.15511   1.15686   1.16368   1.16385   1.18160
 Alpha virt. eigenvalues --    1.19861   1.22320   1.23761   1.31300   1.33881
 Alpha virt. eigenvalues --    1.40366   1.44873   1.46993   1.47848   1.49046
 Alpha virt. eigenvalues --    1.51743   1.52166   1.53147   1.54014   1.54215
 Alpha virt. eigenvalues --    1.54274   1.56306   1.57575   1.60262   1.60546
 Alpha virt. eigenvalues --    1.60869   1.62603   1.64445   1.65819   1.68676
 Alpha virt. eigenvalues --    1.69468   1.69706   1.71145   1.73616   1.77169
 Alpha virt. eigenvalues --    1.77912   1.78139   1.80298   1.86388   1.86870
 Alpha virt. eigenvalues --    1.90230   1.91235   1.94481   1.94831   1.96205
 Alpha virt. eigenvalues --    1.98876   1.99147   2.01717   2.04647   2.06937
 Alpha virt. eigenvalues --    2.09653   2.10079   2.11632   2.17561   2.18932
 Alpha virt. eigenvalues --    2.22568   2.27075   2.29202   2.29560   2.29964
 Alpha virt. eigenvalues --    2.30294   2.31562   2.32631   2.32788   2.34843
 Alpha virt. eigenvalues --    2.35007   2.41721   2.42898   2.43912   2.45134
 Alpha virt. eigenvalues --    2.46425   2.47816   2.50915   2.51585   2.52628
 Alpha virt. eigenvalues --    2.52873   2.60163   2.61956   2.63323   2.64947
 Alpha virt. eigenvalues --    2.68692   2.69976   2.72155   2.73271   2.73483
 Alpha virt. eigenvalues --    2.74738   2.75645   2.76386   2.76774   2.85398
 Alpha virt. eigenvalues --    2.85632   2.86418   2.89069   2.94294   2.94617
 Alpha virt. eigenvalues --    2.95860   2.97731   2.98456   3.13997   3.18948
 Alpha virt. eigenvalues --    3.25159   3.38819   3.39429   3.42386   3.48128
 Alpha virt. eigenvalues --    3.53090   3.55302   3.56194   3.66118   3.74450
 Alpha virt. eigenvalues --    3.78506   3.86330   3.92721   3.97667   4.02632
 Alpha virt. eigenvalues --    4.04670   4.08670   4.15585   4.18698   4.19391
 Alpha virt. eigenvalues --    4.85548   4.93466   5.10480   5.21035   5.78183
 Alpha virt. eigenvalues --    6.52685   6.62401   6.89114   9.92589   9.92803
 Alpha virt. eigenvalues --    9.97979  23.66694  23.99887  24.00922  24.04942
 Alpha virt. eigenvalues --   24.15131  24.16746  24.26950  25.90131  25.91992
 Alpha virt. eigenvalues --   25.94668  26.00578  26.01102  26.02760  26.12962
 Alpha virt. eigenvalues --   26.17117  26.21115  50.04064  66.93486 216.01938
 Alpha virt. eigenvalues --  216.02170 216.08152
          Condensed to atoms (all electrons):
               1          2          3          4          5          6
     1  C    9.739386  -1.028180  -1.209839   0.307864  -1.085469  -0.883269
     2  C   -1.028180  10.471634   0.758460  -0.662967   0.050866  -3.485546
     3  C   -1.209839   0.758460   6.419545   0.325481  -0.389981  -0.047451
     4  C    0.307864  -0.662967   0.325481   6.200411   0.318584  -0.569322
     5  C   -1.085469   0.050866  -0.389981   0.318584   6.335101   0.641544
     6  C   -0.883269  -3.485546  -0.047451  -0.569322   0.641544  10.464810
     7  F    0.474626  -0.211574  -0.030966   0.006583  -0.027147  -0.208607
     8  H   -0.250635  -0.120117   0.079401   0.036372   0.168199   0.133740
     9  H    0.034301   0.043319   0.379913  -0.095462  -0.036307   0.016626
    10  H    0.034121  -0.007790  -0.059853   0.432915  -0.055482  -0.005570
    11  H    0.035305   0.018982  -0.037667  -0.093848   0.383214   0.036011
    12  H   -0.246248   0.131633   0.180004   0.031865   0.061665  -0.128021
    13  O    0.014663  -0.004886  -0.000214  -0.000242  -0.000173  -0.004920
    14  C   -0.004016   0.001418   0.000481  -0.000033   0.000486   0.001756
    15  H    0.000909  -0.000296  -0.000097   0.000011  -0.000096  -0.000340
    16  H   -0.001017   0.000257   0.000045   0.000032   0.000042   0.000256
    17  H    0.046352  -0.016505  -0.023539   0.027900  -0.023475  -0.017400
    18  Cl   0.033700  -0.001179   0.008116  -0.024742   0.009131  -0.001593
    19  H    0.002233   0.160346  -0.022794   0.002204  -0.020087  -0.060995
    20  Cl   0.035954  -0.212524   0.036979   0.001658   0.010722   0.019637
    21  H    0.001443  -0.062676  -0.022739   0.003289  -0.021699   0.166771
    22  Cl   0.039448   0.021285   0.011760   0.001209   0.033370  -0.219617
               7          8          9         10         11         12
     1  C    0.474626  -0.250635   0.034301   0.034121   0.035305  -0.246248
     2  C   -0.211574  -0.120117   0.043319  -0.007790   0.018982   0.131633
     3  C   -0.030966   0.079401   0.379913  -0.059853  -0.037667   0.180004
     4  C    0.006583   0.036372  -0.095462   0.432915  -0.093848   0.031865
     5  C   -0.027147   0.168199  -0.036307  -0.055482   0.383214   0.061665
     6  C   -0.208607   0.133740   0.016626  -0.005570   0.036011  -0.128021
     7  F    9.176005  -0.000565  -0.001057   0.000828  -0.001057  -0.001048
     8  H   -0.000565   0.956666  -0.047538  -0.003621   0.004344  -0.023820
     9  H   -0.001057  -0.047538   0.452163  -0.006104   0.000056   0.004646
    10  H    0.000828  -0.003621  -0.006104   0.459675  -0.005752  -0.003992
    11  H   -0.001057   0.004344   0.000056  -0.005752   0.451896  -0.048012
    12  H   -0.001048  -0.023820   0.004646  -0.003992  -0.048012   0.979722
    13  O    0.003667   0.000231   0.000012  -0.000001   0.000012   0.000204
    14  C    0.000673   0.000993  -0.000018   0.000002  -0.000020   0.001094
    15  H   -0.000063  -0.000117   0.000001  -0.000000   0.000001  -0.000118
    16  H   -0.000032  -0.000095  -0.000000  -0.000000  -0.000000  -0.000099
    17  H   -0.005555  -0.008708  -0.000353  -0.000080  -0.000261  -0.009602
    18  Cl  -0.007813   0.006926   0.000653   0.000105   0.000624   0.007262
    19  H   -0.011772  -0.112496   0.004136   0.000604  -0.000496   0.006791
    20  Cl  -0.000161   0.150140  -0.004627  -0.000399   0.000139  -0.001820
    21  H   -0.011755   0.006976  -0.000572   0.000645   0.004238  -0.117920
    22  Cl  -0.000126  -0.001881   0.000157  -0.000410  -0.004679   0.155663
              13         14         15         16         17         18
     1  C    0.014663  -0.004016   0.000909  -0.001017   0.046352   0.033700
     2  C   -0.004886   0.001418  -0.000296   0.000257  -0.016505  -0.001179
     3  C   -0.000214   0.000481  -0.000097   0.000045  -0.023539   0.008116
     4  C   -0.000242  -0.000033   0.000011   0.000032   0.027900  -0.024742
     5  C   -0.000173   0.000486  -0.000096   0.000042  -0.023475   0.009131
     6  C   -0.004920   0.001756  -0.000340   0.000256  -0.017400  -0.001593
     7  F    0.003667   0.000673  -0.000063  -0.000032  -0.005555  -0.007813
     8  H    0.000231   0.000993  -0.000117  -0.000095  -0.008708   0.006926
     9  H    0.000012  -0.000018   0.000001  -0.000000  -0.000353   0.000653
    10  H   -0.000001   0.000002  -0.000000  -0.000000  -0.000080   0.000105
    11  H    0.000012  -0.000020   0.000001  -0.000000  -0.000261   0.000624
    12  H    0.000204   0.001094  -0.000118  -0.000099  -0.009602   0.007262
    13  O    8.164598   0.280843  -0.082261  -0.084569   0.007839  -0.002967
    14  C    0.280843   4.887404   0.399405   0.399209  -0.003498  -0.000637
    15  H   -0.082261   0.399405   0.644077  -0.098195   0.000409   0.000636
    16  H   -0.084569   0.399209  -0.098195   0.646080   0.000340  -0.000098
    17  H    0.007839  -0.003498   0.000409   0.000340   0.618729   0.263827
    18  Cl  -0.002967  -0.000637   0.000636  -0.000098   0.263827  16.828016
    19  H    0.003192  -0.000681   0.000110   0.000069   0.003511  -0.001079
    20  Cl  -0.001092   0.000002  -0.000054  -0.000057  -0.000759  -0.000271
    21  H    0.003295  -0.000768   0.000111   0.000069   0.003817  -0.001171
    22  Cl  -0.001118   0.000022  -0.000055  -0.000059  -0.000849  -0.000252
              19         20         21         22
     1  C    0.002233   0.035954   0.001443   0.039448
     2  C    0.160346  -0.212524  -0.062676   0.021285
     3  C   -0.022794   0.036979  -0.022739   0.011760
     4  C    0.002204   0.001658   0.003289   0.001209
     5  C   -0.020087   0.010722  -0.021699   0.033370
     6  C   -0.060995   0.019637   0.166771  -0.219617
     7  F   -0.011772  -0.000161  -0.011755  -0.000126
     8  H   -0.112496   0.150140   0.006976  -0.001881
     9  H    0.004136  -0.004627  -0.000572   0.000157
    10  H    0.000604  -0.000399   0.000645  -0.000410
    11  H   -0.000496   0.000139   0.004238  -0.004679
    12  H    0.006791  -0.001820  -0.117920   0.155663
    13  O    0.003192  -0.001092   0.003295  -0.001118
    14  C   -0.000681   0.000002  -0.000768   0.000022
    15  H    0.000110  -0.000054   0.000111  -0.000055
    16  H    0.000069  -0.000057   0.000069  -0.000059
    17  H    0.003511  -0.000759   0.003817  -0.000849
    18  Cl  -0.001079  -0.000271  -0.001171  -0.000252
    19  H    0.630198   0.270168  -0.006975   0.001951
    20  Cl   0.270168  16.810950   0.001958  -0.000379
    21  H   -0.006975   0.001958   0.633445   0.269096
    22  Cl   0.001951  -0.000379   0.269096  16.810509
 Mulliken charges:
               1
     1  C   -0.091631
     2  C    0.156038
     3  C   -0.355048
     4  C   -0.249761
     5  C   -0.353012
     6  C    0.151500
     7  F   -0.143081
     8  H    0.025603
     9  H    0.256056
    10  H    0.220161
    11  H    0.256969
    12  H    0.020154
    13  O   -0.296115
    14  C    0.035883
    15  H    0.136021
    16  H    0.137824
    17  H    0.137859
    18  Cl  -0.117194
    19  H    0.151859
    20  Cl  -0.116163
    21  H    0.151121
    22  Cl  -0.115044
 Sum of Mulliken charges =  -0.00000
 Mulliken charges with hydrogens summed into heavy atoms:
               1
     1  C   -0.091631
     2  C    0.181641
     3  C   -0.098992
     4  C   -0.029600
     5  C   -0.096043
     6  C    0.171653
     7  F   -0.143081
    13  O   -0.296115
    14  C    0.309729
    18  Cl   0.020665
    20  Cl   0.035696
    22  Cl   0.036076
 APT charges:
               1
     1  C   -0.341804
     2  C   -0.445328
     3  C   -0.411401
     4  C   -0.771498
     5  C   -0.410006
     6  C   -0.450851
     7  F   -0.167399
     8  H    0.215478
     9  H    0.784785
    10  H    0.962143
    11  H    0.786365
    12  H    0.204016
    13  O   -1.004043
    14  C   -0.200883
    15  H    0.629970
    16  H    0.604216
    17  H   -0.247445
    18  Cl   0.244116
    19  H   -0.363730
    20  Cl   0.373278
    21  H   -0.363326
    22  Cl   0.373348
 Sum of APT charges =  -0.00000
 APT charges with hydrogens summed into heavy atoms:
               1
     1  C   -0.341804
     2  C   -0.229851
     3  C    0.373384
     4  C    0.190645
     5  C    0.376360
     6  C   -0.246835
     7  F   -0.167399
    13  O   -1.004043
    14  C    1.033302
    18  Cl  -0.003329
    20  Cl   0.009548
    22  Cl   0.010022
 Electronic spatial extent (au):  <R**2>=           5231.3511
 Charge=              0.0000 electrons
 Dipole moment (field-independent basis, Debye):
    X=              1.2725    Y=              0.0028    Z=             -0.2185  Tot=              1.2912
 Quadrupole moment (field-independent basis, Debye-Ang):
   XX=            -55.9898   YY=            -99.5222   ZZ=           -108.5740
   XY=             -0.1582   XZ=              2.1079   YZ=              0.0085
 Traceless Quadrupole moment (field-independent basis, Debye-Ang):
   XX=             32.0388   YY=            -11.4935   ZZ=            -20.5453
   XY=             -0.1582   XZ=              2.1079   YZ=              0.0085
 Octapole moment (field-independent basis, Debye-Ang**2):
  XXX=            152.3265  YYY=             -0.1262  ZZZ=            -12.7773  XYY=            -14.3018
  XXY=             -0.0391  XXZ=              7.5620  XZZ=             19.2096  YZZ=              0.0496
  YYZ=             18.8486  XYZ=             -0.0173
 Hexadecapole moment (field-independent basis, Debye-Ang**3):
 XXXX=          -1799.9687 YYYY=          -2267.7664 ZZZZ=          -1673.3148 XXXY=             -2.6034
 XXXZ=             65.9548 YYYX=             -0.6180 YYYZ=              0.3907 ZZZX=             -5.3063
 ZZZY=              0.0488 XXYY=           -841.3284 XXZZ=           -802.0722 YYZZ=           -670.5230
 XXYZ=             -0.0368 YYXZ=             19.5765 ZZXY=             -0.3400
 N-N= 8.813091872588D+02 E-N=-6.093547805855D+03  KE= 1.823829104625D+03
  Exact polarizability:   0.000   0.000   0.000   0.000   0.000   0.000
 Approx polarizability: 161.784  -0.275 153.232   1.730   0.020 112.126
 Rotating derivatives to standard orientation.
 ***** Axes restored to original set *****
 -------------------------------------------------------------------
 Center     Atomic                   Forces (Hartrees/Bohr)
 Number     Number              X              Y              Z
 -------------------------------------------------------------------
      1        6           0.015761463   -0.001389493   -0.000665984
      2        6          -0.016315644    0.000405784    0.003731255
      3        6           0.005313917   -0.000038403    0.000512686
      4        6           0.004068230   -0.000030693   -0.003433810
      5        6          -0.006223174   -0.000031465    0.002129773
      6        6          -0.000421667    0.000445466   -0.001385664
      7        9           0.002415980   -0.000264573    0.002968206
      8        1          -0.000311719    0.000985048   -0.000543489
      9        1          -0.001330955    0.000010270   -0.000000657
     10        1           0.000157484    0.000018998   -0.000272987
     11        1          -0.000687418    0.000011513   -0.001189266
     12        1           0.000686193    0.001083727   -0.000009196
     13        8           0.000028056    0.000050855   -0.000053830
     14        6           0.007201216    0.000000631    0.004391145
     15        1          -0.003612711   -0.002437842   -0.002168484
     16        1          -0.003624883    0.002445333   -0.002175182
     17        1          -0.000921290   -0.000039232   -0.000527244
     18       17           0.000369540   -0.000080436    0.000208539
     19        1          -0.000516417   -0.000362254   -0.001061063
     20       17          -0.000392344   -0.000139609   -0.000150392
     21        1          -0.001274474   -0.000437695    0.000029600
     22       17          -0.000369381   -0.000205929   -0.000333955
 -------------------------------------------------------------------
 Cartesian Forces:  Max     0.016315644 RMS     0.003435135
 -----------------------------------------------------------------------------------------------
                       Internal Coordinate Forces (Hartree/Bohr or radian)
  Cent   Atom   N1       Length/X         N2         Alpha/Y        N3         Beta/Z          J
 -----------------------------------------------------------------------------------------------
      1  C 
      2  C        1  -0.000003(     1)
      3  C        2  -0.000003(     2)      1  -0.034237(    22)
      4  C        3  -0.000006(     3)      2  -0.025887(    23)      1   0.005042(    42)     0
      5  C        4  -0.000004(     4)      3  -0.017389(    24)      2   0.006851(    43)     0
      6  C        5   0.000000(     5)      4   0.000046(    25)      3   0.003444(    44)     0
      7  F        1   0.000040(     6)      2  -0.004326(    26)      3   0.002703(    45)     0
      8  H        2  -0.000002(     7)      3   0.001283(    27)      4   0.001746(    46)     0
      9  H        3  -0.000001(     8)      4   0.002723(    28)      5   0.000018(    47)     0
     10  H        4  -0.000000(     9)      5  -0.000645(    29)      6   0.000034(    48)     0
     11  H        5  -0.000001(    10)      6  -0.002810(    30)      1   0.000020(    49)     0
     12  H        6  -0.000003(    11)      1   0.001404(    31)      2   0.001920(    50)     0
     13  O        7   0.000010(    12)      1  -0.000008(    32)      3  -0.000001(    51)     0
     14  C       13   0.000008(    13)      1   0.000108(    33)      2  -0.000000(    52)     0
     15  H       14  -0.000005(    14)      1   0.010123(    34)      2   0.000117(    53)     0
     16  H       14  -0.000004(    15)      1   0.010156(    35)      2  -0.000116(    54)     0
     17  H        7  -0.000007(    16)      1   0.001500(    36)      2   0.000010(    55)     0
     18  Cl      17  -0.000006(    17)      7  -0.001050(    37)      1   0.000003(    56)     0
     19  H        7  -0.000018(    18)      1   0.008222(    38)      2  -0.003860(    57)     0
     20  Cl      19   0.000053(    19)      7   0.001046(    39)      1  -0.000073(    58)     0
     21  H        7   0.000114(    20)      1   0.009244(    40)      2   0.004472(    59)     0
     22  Cl      21   0.000106(    21)      7   0.001246(    41)      1   0.000105(    60)     0
 -----------------------------------------------------------------------------------------------
 Internal  Forces:  Max     0.034236807 RMS     0.006684099
 1\1\GINC-R820\POpt\RM062X\6-311++G(d,p)\C7H10Cl3F1O1\ZJXU\03-Apr-2024\
 1\\# m062x 6-311++G(d,p) opt=(z-matrix,maxcyc=31,recalc=5,loose) scrf=
 (solvent=water)\\test\\0,1\C\C,1,d1\C,2,d2,1,120.\C,3,d3,2,120.,1,0.,0
 \C,4,d4,3,120.,2,0.,0\C,5,d5,4,120.,3,0.,0\F,1,d6,2,120.,3,180.,0\H,2,
 d7,3,120.,4,180.,0\H,3,d8,4,120.,5,180.,0\H,4,d9,5,120.,6,180.,0\H,5,d
 10,6,120.,1,180.,0\H,6,d11,1,120.,2,180.,0\O,7,d12,1,179.9,3,180.,0\C,
 13,d13,1,179.9,2,180.,0\H,14,d14,1,120.,2,90.,0\H,14,d15,1,120.,2,-90.
 ,0\H,7,d16,1,100.,2,90.,0\Cl,17,d17,7,160.,1,0.,0\H,7,d18,1,100.,2,-30
 .,0\Cl,19,d19,7,160.,1,0.,0\H,7,d18,1,100.,2,-150.,0\Cl,21,d19,7,160.,
 1,0.,0\\d1=1.37974938\d2=1.38424456\d3=1.38771709\d4=1.39464628\d5=1.3
 9786895\d6=1.3619228\d7=1.08323216\d8=1.0826123\d9=1.08295949\d10=1.08
 255369\d11=1.08238917\d12=3.40292884\d13=1.20488364\d14=1.10054862\d15
 =1.1005488\d16=2.08145796\d17=1.2870824\d18=2.67887347\d19=1.28505693\
 \Version=ES64L-G16RevB.01\State=1-A\HF=-1828.3418548\RMSD=9.164e-09\RM
 SF=3.435e-03\Dipole=-0.4309425,-0.1055513,-0.2473742\Polar=0.,0.,0.,0.
 ,0.,0.\Quadrupole=15.682755,-15.337626,-0.3451291,-0.0297497,14.095504
 4,-0.0066781\PG=C01 [X(C7H10Cl3F1O1)]\\@


 A SCIENTIST IS SOMEONE WHOSE CURIOSITY SURVIVES
 EDUCATION'S ASSAULTS ON IT.
                          - SIR HERMANN BONDI
 Job cpu time:       0 days 20 hours 43 minutes  0.6 seconds.
 Elapsed time:       0 days  5 hours 10 minutes 54.1 seconds.
 File lengths (MBytes):  RWF=    434 Int=      0 D2E=      0 Chk=     17 Scr=      1
 Normal termination of Gaussian 16 at Wed Apr  3 18:32:32 2024.
