 Entering Gaussian System, Link 0=g16
 Input=model_H2b.gjf
 Output=model_H2b.log
 Initial command:
 /home/zjxu/prog/g16/l1.exe "/home/zjxu/zjhan/5_model/HBr/vacuum_new/Gau-43217.inp" -scrdir="/home/zjxu/zjhan/5_model/HBr/vacuum_new/"
 Entering Link 1 = /home/zjxu/prog/g16/l1.exe PID=     43218.
  
 Copyright (c) 1988-2017, Gaussian, Inc.  All Rights Reserved.
  
 This is part of the Gaussian(R) 16 program.  It is based on
 the Gaussian(R) 09 system (copyright 2009, Gaussian, Inc.),
 the Gaussian(R) 03 system (copyright 2003, Gaussian, Inc.),
 the Gaussian(R) 98 system (copyright 1998, Gaussian, Inc.),
 the Gaussian(R) 94 system (copyright 1995, Gaussian, Inc.),
 the Gaussian 92(TM) system (copyright 1992, Gaussian, Inc.),
 the Gaussian 90(TM) system (copyright 1990, Gaussian, Inc.),
 the Gaussian 88(TM) system (copyright 1988, Gaussian, Inc.),
 the Gaussian 86(TM) system (copyright 1986, Carnegie Mellon
 University), and the Gaussian 82(TM) system (copyright 1983,
 Carnegie Mellon University). Gaussian is a federally registered
 trademark of Gaussian, Inc.
  
 This software contains proprietary and confidential information,
 including trade secrets, belonging to Gaussian, Inc.
  
 This software is provided under written license and may be
 used, copied, transmitted, or stored only in accord with that
 written license.
  
 The following legend is applicable only to US Government
 contracts under FAR:
  
                    RESTRICTED RIGHTS LEGEND
  
 Use, reproduction and disclosure by the US Government is
 subject to restrictions as set forth in subparagraphs (a)
 and (c) of the Commercial Computer Software - Restricted
 Rights clause in FAR 52.227-19.
  
 Gaussian, Inc.
 340 Quinnipiac St., Bldg. 40, Wallingford CT 06492
  
  
 ---------------------------------------------------------------
 Warning -- This program may not be used in any manner that
 competes with the business of Gaussian, Inc. or will provide
 assistance to any competitor of Gaussian, Inc.  The licensee
 of this program is prohibited from giving any competitor of
 Gaussian, Inc. access to this program.  By using this program,
 the user acknowledges that Gaussian, Inc. is engaged in the
 business of creating and licensing software in the field of
 computational chemistry and represents and warrants to the
 licensee that it is not a competitor of Gaussian, Inc. and that
 it will not use this program in any manner prohibited above.
 ---------------------------------------------------------------
  

 Cite this work as:
 Gaussian 16, Revision B.01,
 M. J. Frisch, G. W. Trucks, H. B. Schlegel, G. E. Scuseria, 
 M. A. Robb, J. R. Cheeseman, G. Scalmani, V. Barone, 
 G. A. Petersson, H. Nakatsuji, X. Li, M. Caricato, A. V. Marenich, 
 J. Bloino, B. G. Janesko, R. Gomperts, B. Mennucci, H. P. Hratchian, 
 J. V. Ortiz, A. F. Izmaylov, J. L. Sonnenberg, D. Williams-Young, 
 F. Ding, F. Lipparini, F. Egidi, J. Goings, B. Peng, A. Petrone, 
 T. Henderson, D. Ranasinghe, V. G. Zakrzewski, J. Gao, N. Rega, 
 G. Zheng, W. Liang, M. Hada, M. Ehara, K. Toyota, R. Fukuda, 
 J. Hasegawa, M. Ishida, T. Nakajima, Y. Honda, O. Kitao, H. Nakai, 
 T. Vreven, K. Throssell, J. A. Montgomery, Jr., J. E. Peralta, 
 F. Ogliaro, M. J. Bearpark, J. J. Heyd, E. N. Brothers, K. N. Kudin, 
 V. N. Staroverov, T. A. Keith, R. Kobayashi, J. Normand, 
 K. Raghavachari, A. P. Rendell, J. C. Burant, S. S. Iyengar, 
 J. Tomasi, M. Cossi, J. M. Millam, M. Klene, C. Adamo, R. Cammi, 
 J. W. Ochterski, R. L. Martin, K. Morokuma, O. Farkas, 
 J. B. Foresman, and D. J. Fox, Gaussian, Inc., Wallingford CT, 2016.
 
 ******************************************
 Gaussian 16:  ES64L-G16RevB.01 20-Dec-2017
                27-Mar-2024 
 ******************************************
 %mem=2GB
 %nproc=2
 Will use up to    2 processors via shared memory.
 %chk=model_H2b
 ----------------------------------
 # m062x 6-311++G(d,p) opt=z-matrix
 ----------------------------------
 1/10=7,18=40,26=3,38=1/1,3;
 2/12=2,17=6,18=5,29=3,40=1/2;
 3/5=4,6=6,7=1111,11=2,25=1,30=1,71=1,74=-55/1,2,3;
 4//1;
 5/5=2,38=5/2;
 6/7=2,8=2,9=2,10=2,28=1/1;
 7/29=1/1,2,3,16;
 1/10=7,18=40,26=3/3(2);
 2/29=3/2;
 99//99;
 2/29=3/2;
 3/5=4,6=6,7=1111,11=2,25=1,30=1,71=1,74=-55/1,2,3;
 4/5=5,16=3,69=1/1;
 5/5=2,38=5/2;
 7//1,2,3,16;
 1/18=40,26=3/3(-5);
 2/29=3/2;
 6/7=2,8=2,9=2,10=2,19=2,28=1/1;
 99/9=1/99;
 ----
 test
 ----
 Symbolic Z-matrix:
 Charge =  0 Multiplicity = 1
 C1
 C2                   1    d1
 C3                   2    d2       1     120. 
 C4                   3    d3       2     120.     1     0.       0
 C5                   4    d4       3     120.     2     0.       0
 C6                   5    d5       4     120.     3     0.       0
 F7                   1    d6       2     120.     3     180.     0
 H8                   2    d7       3     120.     4     180.     0
 H9                   3    d8       4     120.     5     180.     0
 H10                  4    d9       5     120.     6     180.     0
 H11                  5    d10      6     120.     1     180.     0
 H12                  6    d11      1     120.     2     180.     0
 O13                  7    d12      1     179.9    3     180.     0
 C14                  13   d13      1     179.9    2     180.     0
 H15                  14   d14      1     120.     2     90.      0
 H16                  14   d15      1     120.     2    -90.      0
 H17                  7    d16      1     100.     2     90.      0
 Br18                 17   d17      7     160.     1     0.       0
 H19                  7    d18      1     100.     2    -90.      0
 Br20                 19   d19      7     160.     1     0.       0
       Variables:
  d1                    1.3                      
  d2                    1.3                      
  d3                    1.3                      
  d4                    1.3                      
  d5                    1.3                      
  d6                    1.4                      
  d7                    1.                       
  d8                    1.                       
  d9                    1.                       
  d10                   1.                       
  d11                   1.                       
  d12                   2.8                      
  d13                   1.2                      
  d14                   1.                       
  d15                   1.                       
  d16                   2.3                      
  d17                   0.9                      
  d18                   2.3                      
  d19                   0.9                      
 

 GradGradGradGradGradGradGradGradGradGradGradGradGradGradGradGradGradGrad
 Berny optimization.
 Initialization pass.
                       ----------------------------
                       !    Initial Parameters    !
                       ! (Angstroms and Degrees)  !
 ----------------------                            ----------------------
 !      Name          Value   Derivative information (Atomic Units)     !
 ------------------------------------------------------------------------
 !       d1          1.3      estimate D2E/DX2                          !
 !       d2          1.3      estimate D2E/DX2                          !
 !       d3          1.3      estimate D2E/DX2                          !
 !       d4          1.3      estimate D2E/DX2                          !
 !       d5          1.3      estimate D2E/DX2                          !
 !       d6          1.4      estimate D2E/DX2                          !
 !       d7          1.0      estimate D2E/DX2                          !
 !       d8          1.0      estimate D2E/DX2                          !
 !       d9          1.0      estimate D2E/DX2                          !
 !       d10         1.0      estimate D2E/DX2                          !
 !       d11         1.0      estimate D2E/DX2                          !
 !       d12         2.8      estimate D2E/DX2                          !
 !       d13         1.2      estimate D2E/DX2                          !
 !       d14         1.0      estimate D2E/DX2                          !
 !       d15         1.0      estimate D2E/DX2                          !
 !       d16         2.3      estimate D2E/DX2                          !
 !       d17         0.9      estimate D2E/DX2                          !
 !       d18         2.3      estimate D2E/DX2                          !
 !       d19         0.9      estimate D2E/DX2                          !
 ------------------------------------------------------------------------
 Trust Radius=3.00D-01 FncErr=1.00D-07 GrdErr=1.00D-06 EigMax=2.50D+02 EigMin=1.00D-04
 Number of steps in this run=     29 maximum allowed number of steps=    100.
 GradGradGradGradGradGradGradGradGradGradGradGradGradGradGradGradGradGrad

 ---------------------------------------------------------------------------------------------------
                            Z-MATRIX (ANGSTROMS AND DEGREES)
   CD    Cent   Atom    N1       Length/X        N2       Alpha/Y        N3        Beta/Z          J
 ---------------------------------------------------------------------------------------------------
      1      1  C 
      2      2  C        1   1.300000(     1)
      3      3  C        2   1.300000(     2)      1  120.000(    20)
      4      4  C        3   1.300000(     3)      2  120.000(    21)      1    0.000(    38)      0
      5      5  C        4   1.300000(     4)      3  120.000(    22)      2    0.000(    39)      0
      6      6  C        5   1.300000(     5)      4  120.000(    23)      3    0.000(    40)      0
      7      7  F        1   1.400000(     6)      2  120.000(    24)      3  180.000(    41)      0
      8      8  H        2   1.000000(     7)      3  120.000(    25)      4  180.000(    42)      0
      9      9  H        3   1.000000(     8)      4  120.000(    26)      5  180.000(    43)      0
     10     10  H        4   1.000000(     9)      5  120.000(    27)      6  180.000(    44)      0
     11     11  H        5   1.000000(    10)      6  120.000(    28)      1  180.000(    45)      0
     12     12  H        6   1.000000(    11)      1  120.000(    29)      2  180.000(    46)      0
     13     13  O        7   2.800000(    12)      1  179.900(    30)      3  180.000(    47)      0
     14     14  C       13   1.200000(    13)      1  179.900(    31)      2  180.000(    48)      0
     15     15  H       14   1.000000(    14)      1  120.000(    32)      2   90.000(    49)      0
     16     16  H       14   1.000000(    15)      1  120.000(    33)      2  -90.000(    50)      0
     17     17  H        7   2.300000(    16)      1  100.000(    34)      2   90.000(    51)      0
     18     18  Br      17   0.900000(    17)      7  160.000(    35)      1    0.000(    52)      0
     19     19  H        7   2.300000(    18)      1  100.000(    36)      2  -90.000(    53)      0
     20     20  Br      19   0.900000(    19)      7  160.000(    37)      1    0.000(    54)      0
 ---------------------------------------------------------------------------------------------------
                         Z-Matrix orientation:                         
 ---------------------------------------------------------------------
 Center     Atomic      Atomic             Coordinates (Angstroms)
 Number     Number       Type             X           Y           Z
 ---------------------------------------------------------------------
      1          6           0        0.000000    0.000000    0.000000
      2          6           0        0.000000    0.000000    1.300000
      3          6           0        1.125833    0.000000    1.950000
      4          6           0        2.251666    0.000000    1.300000
      5          6           0        2.251666    0.000000   -0.000000
      6          6           0        1.125833    0.000000   -0.650000
      7          9           0       -1.212436   -0.000000   -0.700000
      8          1           0       -0.866025   -0.000000    1.800000
      9          1           0        1.125833   -0.000000    2.950000
     10          1           0        3.117691   -0.000000    1.800000
     11          1           0        3.117691   -0.000000   -0.500000
     12          1           0        1.125833   -0.000000   -1.650000
     13          8           0       -3.634860   -0.000000   -2.104230
     14          6           0       -4.672340   -0.000000   -2.707251
     15          1           0       -5.104965    0.866025   -2.957922
     16          1           0       -5.104965   -0.866025   -2.957922
     17          1           0       -1.558318    2.265058   -0.899695
     18         35           0       -1.422973    3.151385   -0.821554
     19          1           0       -1.558318   -2.265058   -0.899695
     20         35           0       -1.422973   -3.151385   -0.821554
 ---------------------------------------------------------------------
                    Distance matrix (angstroms):
                    1          2          3          4          5
     1  C    0.000000
     2  C    1.300000   0.000000
     3  C    2.251666   1.300000   0.000000
     4  C    2.600000   2.251666   1.300000   0.000000
     5  C    2.251666   2.600000   2.251666   1.300000   0.000000
     6  C    1.300000   2.251666   2.600000   2.251666   1.300000
     7  F    1.400000   2.338803   3.534119   4.000000   3.534119
     8  H    1.997498   1.000000   1.997498   3.157531   3.600000
     9  H    3.157531   1.997498   1.000000   1.997498   3.157531
    10  H    3.600000   3.157531   1.997498   1.000000   1.997498
    11  H    3.157531   3.600000   3.157531   1.997498   1.000000
    12  H    1.997498   3.157531   3.600000   3.157531   1.997498
    13  O    4.199999   4.980059   6.253077   6.799997   6.251317
    14  C    5.399997   6.155390   7.436988   7.999995   7.434452
    15  H    5.963218   6.703772   7.978755   8.543999   7.976172
    16  H    5.963218   6.703772   7.978755   8.543999   7.976172
    17  H    2.892800   3.521009   4.522822   4.948245   4.522822
    18  Br   3.554016   4.056731   4.910107   5.285375   4.910107
    19  H    2.892800   3.521009   4.522822   4.948245   4.522822
    20  Br   3.554016   4.056731   4.910107   5.285375   4.910107
                    6          7          8          9         10
     6  C    0.000000
     7  F    2.338803   0.000000
     8  H    3.157531   2.523886   0.000000
     9  H    3.600000   4.334743   2.300000   0.000000
    10  H    3.157531   5.000000   3.983717   2.300000   0.000000
    11  H    1.997498   4.334743   4.600000   3.983717   2.300000
    12  H    1.000000   2.523886   3.983717   4.600000   3.983717
    13  O    4.977849   2.800000   4.786382   6.943301   7.799997
    14  C    6.152324   3.999999   5.899436   8.100821   8.999995
    15  H    6.700697   4.582575   6.430896   8.629970   9.539387
    16  H    6.700697   4.582575   6.430896   8.629970   9.539387
    17  H    3.521009   2.300000   3.591394   5.211076   5.855246
    18  Br   4.056731   3.160748   4.136902   5.536448   6.117303
    19  H    3.521009   2.300000   3.591394   5.211076   5.855246
    20  Br   4.056731   3.160748   4.136902   5.536448   6.117303
                   11         12         13         14         15
    11  H    0.000000
    12  H    2.300000   0.000000
    13  O    6.940497   4.782313   0.000000
    14  C    8.096700   5.893776   1.200000   0.000000
    15  H    8.625744   6.425224   1.907878   1.000000   0.000000
    16  H    8.625744   6.425224   1.907878   1.000000   1.732051
    17  H    5.211076   3.591394   3.300517   4.253807   4.332700
    18  Br   5.536448   4.136902   4.058193   4.903618   4.831563
    19  H    5.211076   3.591394   3.300517   4.253807   5.159329
    20  Br   5.536448   4.136902   4.058193   4.903618   5.853266
                   16         17         18         19         20
    16  H    0.000000
    17  H    5.159329   0.000000
    18  Br   5.853266   0.900000   0.000000
    19  H    4.332700   4.530116   5.418697   0.000000
    20  Br   4.831563   5.418697   6.302770   0.900000   0.000000
 Stoichiometry    C7H9Br2FO
 Framework group  CS[SG(C7H5FO),X(H4Br2)]
 Deg. of freedom    34
 Full point group                 CS      NOp   2
 Largest Abelian subgroup         CS      NOp   2
 Largest concise Abelian subgroup CS      NOp   2
                         Standard orientation:                         
 ---------------------------------------------------------------------
 Center     Atomic      Atomic             Coordinates (Angstroms)
 Number     Number       Type             X           Y           Z
 ---------------------------------------------------------------------
      1          6           0       -0.000780   -1.111712    0.000000
      2          6           0       -1.126613   -1.761712    0.000000
      3          6           0       -1.126613   -3.061712    0.000000
      4          6           0       -0.000780   -3.711712    0.000000
      5          6           0        1.125053   -3.061712    0.000000
      6          6           0        1.125053   -1.761712    0.000000
      7          9           0       -0.000780    0.288288   -0.000000
      8          1           0       -1.992639   -1.261712    0.000000
      9          1           0       -1.992639   -3.561712    0.000000
     10          1           0       -0.000780   -4.711712    0.000000
     11          1           0        1.991078   -3.561712    0.000000
     12          1           0        1.991078   -1.261712    0.000000
     13          8           0        0.004107    3.088284   -0.000000
     14          6           0        0.007597    4.288279   -0.000000
     15          1           0        0.008373    4.788279    0.866025
     16          1           0        0.008373    4.788279   -0.866025
     17          1           0       -0.000780    0.687679    2.265058
     18         35           0       -0.000780    0.531396    3.151385
     19          1           0       -0.000780    0.687679   -2.265058
     20         35           0       -0.000780    0.531396   -3.151385
 ---------------------------------------------------------------------
 Rotational constants (GHZ):           0.4707583           0.3051438           0.1961820
 Standard basis: 6-311++G(d,p) (5D, 7F)
 There are   248 symmetry adapted cartesian basis functions of A'  symmetry.
 There are   124 symmetry adapted cartesian basis functions of A"  symmetry.
 There are   236 symmetry adapted basis functions of A'  symmetry.
 There are   121 symmetry adapted basis functions of A"  symmetry.
   357 basis functions,   593 primitive gaussians,   372 cartesian basis functions
    69 alpha electrons       69 beta electrons
       nuclear repulsion energy      1146.3588038004 Hartrees.
 NAtoms=   20 NActive=   20 NUniq=   17 SFac= 1.38D+00 NAtFMM=   60 NAOKFM=F Big=F
 Integral buffers will be    131072 words long.
 Raffenetti 2 integral format.
 Two-electron integral symmetry is turned on.
 One-electron integrals computed using PRISM.
 NBasis=   357 RedAO= T EigKep=  3.61D-06  NBF=   236   121
 NBsUse=   356 1.00D-06 EigRej=  4.00D-07 NBFU=   235   121
 ExpMin= 3.50D-02 ExpMax= 4.40D+05 ExpMxC= 1.51D+04 IAcc=3 IRadAn=         5 AccDes= 0.00D+00
 Harris functional with IExCor= 1009 and IRadAn=       5 diagonalized for initial guess.
 HarFok:  IExCor= 1009 AccDes= 0.00D+00 IRadAn=         5 IDoV= 1 UseB2=F ITyADJ=14
 ICtDFT=  3500011 ScaDFX=  1.000000  1.000000  1.000000  1.000000
 FoFCou: FMM=F IPFlag=           0 FMFlag=      100000 FMFlg1=           0
         NFxFlg=           0 DoJE=T BraDBF=F KetDBF=T FulRan=T
         wScrn=  0.000000 ICntrl=       500 IOpCl=  0 I1Cent=   200000004 NGrid=           0
         NMat0=    1 NMatS0=      1 NMatT0=    0 NMatD0=    1 NMtDS0=    0 NMtDT0=    0
 Petite list used in FoFCou.
 Initial guess orbital symmetries:
       Occupied  (A") (A') (A") (A') (A") (A') (A') (A") (A') (A")
                 (A') (A') (A') (A') (A') (A') (A') (A') (A') (A")
                 (A') (A") (A') (A') (A") (A') (A") (A") (A') (A')
                 (A") (A') (A") (A') (A') (A") (A") (A') (A') (A')
                 (A") (A') (A') (A') (A') (A') (A') (A') (A') (A")
                 (A') (A') (A') (A") (A') (A') (A") (A') (A') (A')
                 (A") (A') (A") (A') (A") (A") (A') (A") (A")
       Virtual   (A') (A") (A") (A') (A') (A") (A') (A') (A') (A')
                 (A") (A') (A") (A') (A") (A') (A") (A") (A') (A')
                 (A') (A') (A') (A") (A') (A") (A') (A") (A') (A')
                 (A') (A') (A") (A') (A') (A") (A') (A") (A') (A')
                 (A") (A') (A') (A") (A') (A') (A") (A') (A') (A')
                 (A") (A') (A') (A') (A') (A') (A') (A") (A') (A')
                 (A') (A') (A") (A') (A') (A') (A') (A") (A') (A")
                 (A') (A') (A") (A') (A') (A') (A') (A") (A") (A')
                 (A') (A") (A') (A') (A") (A') (A') (A') (A') (A")
                 (A") (A') (A') (A') (A") (A') (A") (A') (A") (A")
                 (A") (A') (A') (A') (A") (A') (A') (A') (A") (A')
                 (A') (A') (A') (A') (A') (A") (A') (A') (A') (A")
                 (A') (A") (A') (A') (A") (A') (A") (A") (A') (A')
                 (A") (A') (A') (A") (A") (A") (A') (A') (A') (A')
                 (A') (A") (A') (A') (A') (A") (A") (A') (A') (A")
                 (A') (A") (A') (A") (A') (A') (A") (A') (A') (A")
                 (A') (A") (A') (A") (A') (A') (A') (A') (A') (A")
                 (A') (A") (A") (A") (A") (A') (A') (A') (A") (A')
                 (A") (A') (A') (A') (A") (A') (A") (A') (A') (A")
                 (A') (A") (A') (A') (A") (A') (A') (A') (A") (A')
                 (A") (A') (A') (A") (A') (A') (A") (A') (A') (A')
                 (A") (A') (A") (A") (A') (A") (A') (A') (A') (A")
                 (A') (A') (A') (A') (A') (A') (A') (A") (A') (A')
                 (A') (A") (A') (A") (A") (A') (A') (A') (A") (A')
                 (A') (A") (A") (A') (A') (A') (A") (A') (A') (A')
                 (A") (A') (A') (A') (A') (A") (A') (A") (A') (A')
                 (A') (A") (A") (A') (A") (A') (A') (A") (A') (A')
                 (A') (A') (A') (A') (A') (A') (A") (A') (A') (A")
                 (A') (A") (A') (A') (A") (A') (A")
 The electronic state of the initial guess is 1-A'.
 Requested convergence on RMS density matrix=1.00D-08 within 128 cycles.
 Requested convergence on MAX density matrix=1.00D-06.
 Requested convergence on             energy=1.00D-06.
 No special actions if energy rises.
 SCF Done:  E(RM062X) =  -5594.64545390     A.U. after   14 cycles
            NFock= 14  Conv=0.84D-08     -V/T= 2.0002

 **********************************************************************

            Population analysis using the SCF Density.

 **********************************************************************

 Orbital symmetries:
       Occupied  (A") (A') (A") (A') (A") (A') (A') (A") (A') (A")
                 (A') (A') (A') (A') (A') (A') (A') (A') (A') (A")
                 (A') (A") (A') (A') (A") (A') (A") (A") (A') (A')
                 (A") (A') (A") (A') (A") (A') (A") (A') (A') (A')
                 (A") (A') (A') (A') (A') (A') (A') (A') (A") (A')
                 (A') (A") (A') (A') (A') (A") (A') (A') (A") (A')
                 (A') (A') (A") (A") (A') (A') (A") (A") (A")
       Virtual   (A') (A') (A') (A') (A') (A") (A") (A") (A') (A')
                 (A") (A') (A") (A') (A") (A') (A') (A") (A') (A')
                 (A") (A") (A') (A') (A') (A") (A') (A') (A') (A')
                 (A') (A") (A') (A") (A') (A") (A') (A') (A') (A")
                 (A') (A") (A') (A') (A') (A') (A") (A') (A') (A")
                 (A') (A") (A') (A') (A') (A') (A") (A') (A') (A')
                 (A') (A') (A") (A') (A') (A') (A") (A') (A') (A")
                 (A') (A') (A') (A') (A") (A') (A') (A") (A') (A')
                 (A') (A') (A") (A") (A') (A') (A') (A") (A") (A')
                 (A") (A') (A") (A') (A") (A') (A') (A") (A') (A")
                 (A") (A') (A') (A') (A") (A') (A') (A') (A") (A')
                 (A') (A') (A') (A') (A') (A') (A") (A') (A') (A')
                 (A') (A") (A') (A') (A") (A") (A') (A') (A") (A")
                 (A') (A') (A") (A") (A") (A") (A') (A') (A') (A')
                 (A") (A') (A') (A') (A") (A') (A') (A') (A') (A")
                 (A") (A") (A") (A') (A') (A") (A') (A") (A') (A')
                 (A") (A') (A') (A') (A") (A') (A') (A') (A") (A')
                 (A") (A') (A") (A') (A") (A") (A') (A") (A') (A')
                 (A") (A') (A') (A') (A') (A") (A") (A') (A') (A")
                 (A') (A") (A') (A') (A") (A') (A') (A') (A') (A")
                 (A') (A') (A') (A') (A") (A') (A') (A') (A") (A")
                 (A') (A") (A") (A") (A') (A") (A') (A') (A') (A")
                 (A') (A') (A') (A') (A') (A") (A') (A') (A') (A')
                 (A') (A") (A") (A') (A") (A') (A') (A') (A') (A')
                 (A") (A') (A') (A") (A") (A') (A') (A") (A') (A')
                 (A") (A') (A') (A') (A') (A") (A') (A") (A') (A')
                 (A') (A") (A") (A') (A") (A') (A') (A") (A') (A')
                 (A') (A') (A') (A') (A') (A') (A") (A') (A') (A")
                 (A') (A") (A') (A') (A") (A') (A")
 The electronic state is 1-A'.
 Alpha  occ. eigenvalues -- -485.31616-485.31616 -63.31963 -63.31963 -57.14513
 Alpha  occ. eigenvalues --  -57.14513 -57.14330 -57.14330 -57.14329 -57.14329
 Alpha  occ. eigenvalues --  -25.24750 -19.64062 -10.61943 -10.61208 -10.52506
 Alpha  occ. eigenvalues --  -10.52505 -10.52351 -10.52340 -10.51671  -9.01898
 Alpha  occ. eigenvalues --   -9.01898  -6.85507  -6.85506  -6.83318  -6.83318
 Alpha  occ. eigenvalues --   -6.83316  -6.83316  -2.89211  -2.89211  -2.87405
 Alpha  occ. eigenvalues --   -2.87405  -2.87404  -2.87404  -2.86164  -2.86164
 Alpha  occ. eigenvalues --   -2.86163  -2.86163  -1.35332  -1.19137  -1.03199
 Alpha  occ. eigenvalues --   -0.98337  -0.98289  -0.89454  -0.88502  -0.75662
 Alpha  occ. eigenvalues --   -0.73909  -0.72416  -0.66422  -0.60982  -0.59046
 Alpha  occ. eigenvalues --   -0.58681  -0.57337  -0.54152  -0.53587  -0.53447
 Alpha  occ. eigenvalues --   -0.52837  -0.52737  -0.49716  -0.47624  -0.47481
 Alpha  occ. eigenvalues --   -0.44700  -0.42255  -0.36665  -0.36592  -0.36564
 Alpha  occ. eigenvalues --   -0.36524  -0.35084  -0.33869  -0.32661
 Alpha virt. eigenvalues --   -0.01103  -0.00273   0.00284   0.01246   0.01977
 Alpha virt. eigenvalues --    0.02086   0.02468   0.02991   0.03483   0.03881
 Alpha virt. eigenvalues --    0.04161   0.04757   0.06036   0.06409   0.06428
 Alpha virt. eigenvalues --    0.06818   0.07072   0.07650   0.08742   0.08956
 Alpha virt. eigenvalues --    0.10783   0.10831   0.10898   0.11454   0.12476
 Alpha virt. eigenvalues --    0.12841   0.13282   0.13331   0.13336   0.13762
 Alpha virt. eigenvalues --    0.14009   0.14717   0.15907   0.16045   0.16200
 Alpha virt. eigenvalues --    0.16884   0.17417   0.17902   0.18443   0.18630
 Alpha virt. eigenvalues --    0.19093   0.19444   0.19610   0.20709   0.21613
 Alpha virt. eigenvalues --    0.22973   0.23520   0.23766   0.24126   0.26149
 Alpha virt. eigenvalues --    0.26296   0.27460   0.27681   0.29888   0.32120
 Alpha virt. eigenvalues --    0.32156   0.32348   0.33163   0.34877   0.36107
 Alpha virt. eigenvalues --    0.36311   0.38965   0.39675   0.40863   0.41193
 Alpha virt. eigenvalues --    0.41337   0.42578   0.42627   0.43346   0.44875
 Alpha virt. eigenvalues --    0.45547   0.45759   0.47174   0.47227   0.47723
 Alpha virt. eigenvalues --    0.47986   0.52730   0.54330   0.55245   0.55443
 Alpha virt. eigenvalues --    0.57370   0.58459   0.58591   0.59302   0.59595
 Alpha virt. eigenvalues --    0.59835   0.63001   0.63067   0.63288   0.63812
 Alpha virt. eigenvalues --    0.65433   0.65466   0.66241   0.66642   0.67457
 Alpha virt. eigenvalues --    0.68804   0.69131   0.69851   0.69997   0.71030
 Alpha virt. eigenvalues --    0.71509   0.73175   0.73259   0.75279   0.75784
 Alpha virt. eigenvalues --    0.77735   0.81176   0.81282   0.84984   0.85388
 Alpha virt. eigenvalues --    0.85744   0.88952   0.89687   0.90375   0.95011
 Alpha virt. eigenvalues --    0.95574   0.98007   1.00636   1.01605   1.02102
 Alpha virt. eigenvalues --    1.02635   1.04060   1.06006   1.06791   1.07426
 Alpha virt. eigenvalues --    1.07924   1.11493   1.12266   1.15797   1.15993
 Alpha virt. eigenvalues --    1.17479   1.18849   1.21307   1.23843   1.28068
 Alpha virt. eigenvalues --    1.28905   1.32241   1.34758   1.35098   1.41868
 Alpha virt. eigenvalues --    1.51744   1.52182   1.53058   1.56089   1.58821
 Alpha virt. eigenvalues --    1.59597   1.61721   1.64706   1.65026   1.65904
 Alpha virt. eigenvalues --    1.67551   1.67658   1.68660   1.69696   1.71347
 Alpha virt. eigenvalues --    1.72857   1.75636   1.75850   1.76232   1.76448
 Alpha virt. eigenvalues --    1.81998   1.82578   1.84464   1.85004   1.85442
 Alpha virt. eigenvalues --    1.90072   1.94106   1.95708   1.96506   1.99353
 Alpha virt. eigenvalues --    2.02217   2.03218   2.04203   2.04441   2.04573
 Alpha virt. eigenvalues --    2.05676   2.06121   2.06258   2.06696   2.08135
 Alpha virt. eigenvalues --    2.12597   2.17106   2.17362   2.17954   2.19318
 Alpha virt. eigenvalues --    2.20327   2.21698   2.22488   2.32214   2.36011
 Alpha virt. eigenvalues --    2.40699   2.46356   2.48960   2.50548   2.50901
 Alpha virt. eigenvalues --    2.58001   2.64239   2.66435   2.70625   2.72154
 Alpha virt. eigenvalues --    2.74511   2.76638   2.78100   2.79594   2.80493
 Alpha virt. eigenvalues --    2.80876   2.86216   2.86477   2.88154   2.89891
 Alpha virt. eigenvalues --    2.90838   2.96512   2.98591   2.98814   2.99338
 Alpha virt. eigenvalues --    3.00291   3.03737   3.08765   3.11651   3.24649
 Alpha virt. eigenvalues --    3.27151   3.35896   3.39805   3.41877   3.55192
 Alpha virt. eigenvalues --    3.60122   3.61619   3.65088   3.75043   3.76683
 Alpha virt. eigenvalues --    3.87904   3.89173   3.99856   4.00129   4.05353
 Alpha virt. eigenvalues --    4.09061   4.14112   4.18093   4.19197   4.25743
 Alpha virt. eigenvalues --    4.25963   4.26155   4.28205   4.28930   4.29012
 Alpha virt. eigenvalues --    4.29746   4.31797   4.33715   4.34469   4.39359
 Alpha virt. eigenvalues --    4.91711   4.92110   4.95648   4.96894   5.11577
 Alpha virt. eigenvalues --    5.24957   5.83358   6.58611   6.62750   6.92231
 Alpha virt. eigenvalues --    7.00970   7.03358   7.63194   7.65130   7.66729
 Alpha virt. eigenvalues --    7.68239   7.83259   7.88018  23.73594  24.17061
 Alpha virt. eigenvalues --   24.27179  24.31604  24.54278  24.57301  24.72887
 Alpha virt. eigenvalues --   48.53063  48.54661  50.07186  66.98974 290.78752
 Alpha virt. eigenvalues --  290.80782 290.82558 290.83941 291.02714 291.07127
 Alpha virt. eigenvalues -- 1021.155501021.17576
          Condensed to atoms (all electrons):
               1          2          3          4          5          6
     1  C   14.064083  -1.451654  -2.384563  -0.366476  -2.385825  -1.451494
     2  C   -1.451654  14.831680   2.292208  -0.937121  -1.072186  -8.002792
     3  C   -2.384563   2.292208   6.819069   0.503661  -0.321788  -1.075679
     4  C   -0.366476  -0.937121   0.503661   7.333641   0.505114  -0.926164
     5  C   -2.385825  -1.072186  -0.321788   0.505114   6.820060   2.288451
     6  C   -1.451494  -8.002792  -1.075679  -0.926164   2.288451  14.831078
     7  F    0.763172  -0.297799  -0.078420   0.023919  -0.078538  -0.297136
     8  H   -0.103533   0.548941  -0.073684  -0.039258   0.020852  -0.029344
     9  H    0.000648  -0.038829   0.419135  -0.130757   0.007194   0.063066
    10  H    0.053569  -0.028178  -0.085246   0.536709  -0.085400  -0.027798
    11  H    0.001082   0.063465   0.007129  -0.130913   0.419147  -0.039431
    12  H   -0.102547  -0.028218   0.020953  -0.039539  -0.074348   0.547590
    13  O    0.074884  -0.024689  -0.003075  -0.000171  -0.003049  -0.024731
    14  C    0.011596  -0.003880  -0.000902   0.000840  -0.000901  -0.003829
    15  H   -0.001208   0.000258   0.000085  -0.000114   0.000082   0.000238
    16  H   -0.001208   0.000258   0.000085  -0.000114   0.000082   0.000238
    17  H   -0.119284   0.031167   0.022883  -0.032724   0.022190   0.025678
    18  Br   0.278464  -0.072100  -0.057370   0.050053  -0.056733  -0.067204
    19  H   -0.119284   0.031167   0.022883  -0.032724   0.022190   0.025678
    20  Br   0.278464  -0.072100  -0.057370   0.050053  -0.056733  -0.067204
               7          8          9         10         11         12
     1  C    0.763172  -0.103533   0.000648   0.053569   0.001082  -0.102547
     2  C   -0.297799   0.548941  -0.038829  -0.028178   0.063465  -0.028218
     3  C   -0.078420  -0.073684   0.419135  -0.085246   0.007129   0.020953
     4  C    0.023919  -0.039258  -0.130757   0.536709  -0.130913  -0.039539
     5  C   -0.078538   0.020852   0.007194  -0.085400   0.419147  -0.074348
     6  C   -0.297136  -0.029344   0.063066  -0.027798  -0.039431   0.547590
     7  F    9.170536  -0.012741  -0.002519   0.002064  -0.002506  -0.012762
     8  H   -0.012741   0.507122  -0.010183  -0.000392   0.002959   0.000873
     9  H   -0.002519  -0.010183   0.507814  -0.018789   0.002032   0.002966
    10  H    0.002064  -0.000392  -0.018789   0.519343  -0.018795  -0.000392
    11  H   -0.002506   0.002959   0.002032  -0.018795   0.507822  -0.010203
    12  H   -0.012762   0.000873   0.002966  -0.000392  -0.010203   0.507272
    13  O    0.002052   0.001414  -0.000023   0.000026  -0.000023   0.001421
    14  C    0.002714  -0.000258  -0.000074   0.000028  -0.000074  -0.000257
    15  H    0.000017  -0.000019   0.000009  -0.000004   0.000009  -0.000018
    16  H    0.000017  -0.000019   0.000009  -0.000004   0.000009  -0.000018
    17  H   -0.044239   0.009657   0.004220  -0.002776   0.004233   0.009609
    18  Br   0.014981  -0.007465  -0.005405   0.003375  -0.005415  -0.007425
    19  H   -0.044239   0.009657   0.004220  -0.002776   0.004233   0.009609
    20  Br   0.014981  -0.007465  -0.005405   0.003375  -0.005415  -0.007425
              13         14         15         16         17         18
     1  C    0.074884   0.011596  -0.001208  -0.001208  -0.119284   0.278464
     2  C   -0.024689  -0.003880   0.000258   0.000258   0.031167  -0.072100
     3  C   -0.003075  -0.000902   0.000085   0.000085   0.022883  -0.057370
     4  C   -0.000171   0.000840  -0.000114  -0.000114  -0.032724   0.050053
     5  C   -0.003049  -0.000901   0.000082   0.000082   0.022190  -0.056733
     6  C   -0.024731  -0.003829   0.000238   0.000238   0.025678  -0.067204
     7  F    0.002052   0.002714   0.000017   0.000017  -0.044239   0.014981
     8  H    0.001414  -0.000258  -0.000019  -0.000019   0.009657  -0.007465
     9  H   -0.000023  -0.000074   0.000009   0.000009   0.004220  -0.005405
    10  H    0.000026   0.000028  -0.000004  -0.000004  -0.002776   0.003375
    11  H   -0.000023  -0.000074   0.000009   0.000009   0.004233  -0.005415
    12  H    0.001421  -0.000257  -0.000018  -0.000018   0.009609  -0.007425
    13  O    8.143101   0.268081  -0.089402  -0.089402   0.021892  -0.019482
    14  C    0.268081   4.859725   0.396875   0.396875  -0.015451   0.008833
    15  H   -0.089402   0.396875   0.752835  -0.166504   0.004143  -0.001510
    16  H   -0.089402   0.396875  -0.166504   0.752835   0.000676  -0.000537
    17  H    0.021892  -0.015451   0.004143   0.000676   1.173803   0.013131
    18  Br  -0.019482   0.008833  -0.001510  -0.000537   0.013131  34.771602
    19  H    0.021892  -0.015451   0.000676   0.004143   0.031166  -0.020735
    20  Br  -0.019482   0.008833  -0.000537  -0.001510  -0.020735   0.013562
              19         20
     1  C   -0.119284   0.278464
     2  C    0.031167  -0.072100
     3  C    0.022883  -0.057370
     4  C   -0.032724   0.050053
     5  C    0.022190  -0.056733
     6  C    0.025678  -0.067204
     7  F   -0.044239   0.014981
     8  H    0.009657  -0.007465
     9  H    0.004220  -0.005405
    10  H   -0.002776   0.003375
    11  H    0.004233  -0.005415
    12  H    0.009609  -0.007425
    13  O    0.021892  -0.019482
    14  C   -0.015451   0.008833
    15  H    0.000676  -0.000537
    16  H    0.004143  -0.001510
    17  H    0.031166  -0.020735
    18  Br  -0.020735   0.013562
    19  H    1.173803   0.013131
    20  Br   0.013131  34.771602
 Mulliken charges:
               1
     1  C   -1.038887
     2  C    0.230401
     3  C    0.030005
     4  C   -0.367914
     5  C    0.030138
     6  C    0.230789
     7  F   -0.123553
     8  H    0.182884
     9  H    0.200669
    10  H    0.152062
    11  H    0.200655
    12  H    0.182860
    13  O   -0.261235
    14  C    0.086675
    15  H    0.104087
    16  H    0.104087
    17  H   -0.139241
    18  Br   0.167379
    19  H   -0.139241
    20  Br   0.167379
 Sum of Mulliken charges =  -0.00000
 Mulliken charges with hydrogens summed into heavy atoms:
               1
     1  C   -1.038887
     2  C    0.413285
     3  C    0.230674
     4  C   -0.215852
     5  C    0.230792
     6  C    0.413649
     7  F   -0.123553
    13  O   -0.261235
    14  C    0.294850
    18  Br   0.028138
    20  Br   0.028138
 Electronic spatial extent (au):  <R**2>=           4817.4253
 Charge=             -0.0000 electrons
 Dipole moment (field-independent basis, Debye):
    X=              0.0073    Y=              0.7254    Z=             -0.0000  Tot=              0.7254
 Quadrupole moment (field-independent basis, Debye-Ang):
   XX=            -84.3805   YY=            -62.5008   ZZ=            -99.3449
   XY=              0.0420   XZ=             -0.0000   YZ=              0.0000
 Traceless Quadrupole moment (field-independent basis, Debye-Ang):
   XX=             -2.3051   YY=             19.5746   ZZ=            -17.2695
   XY=              0.0420   XZ=             -0.0000   YZ=              0.0000
 Octapole moment (field-independent basis, Debye-Ang**2):
  XXX=             -0.0379  YYY=            126.9994  ZZZ=             -0.0000  XYY=              0.1868
  XXY=              6.7944  XXZ=             -0.0000  XZZ=              0.0020  YZZ=             21.5070
  YYZ=              0.0000  XYZ=             -0.0000
 Hexadecapole moment (field-independent basis, Debye-Ang**3):
 XXXX=           -288.3158 YYYY=          -1916.3194 ZZZZ=          -2333.6008 XXXY=             -0.9501
 XXXZ=              0.0000 YYYX=              0.0006 YYYZ=              0.0000 ZZZX=              0.0000
 ZZZY=              0.0000 XXYY=           -454.0801 XXZZ=           -457.8413 YYZZ=           -852.1698
 XXYZ=             -0.0000 YYXZ=             -0.0000 ZZXY=             -0.3108
 N-N= 1.146358803800D+03 E-N=-1.565044873034D+04  KE= 5.593565116653D+03
 Symmetry A'   KE= 3.000315952473D+03
 Symmetry A"   KE= 2.593249164180D+03
 Calling FoFJK, ICntrl=      2127 FMM=F ISym2X=1 I1Cent= 0 IOpClX= 0 NMat=1 NMatS=1 NMatT=0.
 ***** Axes restored to original set *****
 -------------------------------------------------------------------
 Center     Atomic                   Forces (Hartrees/Bohr)
 Number     Number              X              Y              Z
 -------------------------------------------------------------------
      1        6          -0.090643098   -0.000000000   -0.052331262
      2        6          -0.052433443   -0.000000000    0.015356413
      3        6           0.002500745    0.000000000    0.036592983
      4        6           0.038906999    0.000000000    0.022462928
      5        6           0.032940349    0.000000000   -0.016130531
      6        6          -0.012918440    0.000000000   -0.053087855
      7        9           0.025604188    0.000000000    0.014783364
      8        1          -0.065732397    0.000000000    0.035527006
      9        1          -0.001610284    0.000000000    0.073832683
     10        1           0.064323389    0.000000000    0.037137179
     11        1           0.063135886   -0.000000000   -0.038310859
     12        1          -0.002099366    0.000000000   -0.074689249
     13        8           0.010788022    0.000000000    0.006204475
     14        6           0.067977031   -0.000000000    0.039599026
     15        1          -0.039505226    0.072437730   -0.022972142
     16        1          -0.039505226   -0.072437730   -0.022972142
     17        1          -0.179389553   -1.168778759   -0.103572323
     18       35           0.178524989    1.168575409    0.103071313
     19        1          -0.179389553    1.168778759   -0.103572323
     20       35           0.178524989   -1.168575409    0.103071313
 -------------------------------------------------------------------
 Cartesian Forces:  Max     1.168778759 RMS     0.308359726
 -----------------------------------------------------------------------------------------------
                       Internal Coordinate Forces (Hartree/Bohr or radian)
  Cent   Atom   N1       Length/X         N2         Alpha/Y        N3         Beta/Z          J
 -----------------------------------------------------------------------------------------------
      1  C 
      2  C        1   0.037292(     1)
      3  C        2   0.152875(     2)      1   0.162642(    20)
      4  C        3   0.220908(     3)      2   0.414059(    21)      1   0.000000(    38)     0
      5  C        4   0.183617(     4)      3   0.449490(    22)      2   0.000000(    39)     0
      6  C        5   0.078293(     5)      4   0.252342(    23)      3   0.000000(    40)     0
      7  F        1  -0.027284(     6)      2   0.000002(    24)      3  -0.000000(    41)     0
      8  H        2   0.074689(     7)      3   0.003966(    25)      4   0.000000(    42)     0
      9  H        3   0.073833(     8)      4   0.003043(    26)      5   0.000000(    43)     0
     10  H        4   0.074274(     9)      5   0.000000(    27)      6   0.000000(    44)     0
     11  H        5   0.073833(    10)      6  -0.003043(    28)      1  -0.000000(    45)     0
     12  H        6   0.074689(    11)      1  -0.003967(    29)      2   0.000000(    46)     0
     13  O        7   0.000283(    12)      1   0.000006(    30)      3  -0.000000(    47)     0
     14  C       13   0.012728(    13)      1   0.000103(    31)      2  -0.000000(    48)     0
     15  H       14   0.085582(    14)      1   0.006345(    32)      2   0.000116(    49)     0
     16  H       14   0.085582(    15)      1   0.006345(    33)      2  -0.000116(    50)     0
     17  H        7  -0.000027(    16)      1   0.004277(    34)      2   0.000007(    51)     0
     18  Br      17   1.186618(    17)      7  -0.000153(    35)      1   0.000000(    52)     0
     19  H        7  -0.000027(    18)      1   0.004277(    36)      2  -0.000007(    53)     0
     20  Br      19   1.186618(    19)      7  -0.000153(    37)      1  -0.000000(    54)     0
 -----------------------------------------------------------------------------------------------
 Internal  Forces:  Max     1.186618450 RMS     0.252265557

 GradGradGradGradGradGradGradGradGradGradGradGradGradGradGradGradGradGrad
 Berny optimization.
 Search for a local minimum.
 Step number   1 out of a maximum of   29
 All quantities printed in internal units (Hartrees-Bohrs-Radians)
 Second derivative matrix not updated -- first step.
 The second derivative matrix:
                          d1        d2        d3        d4        d5
           d1           0.95300
           d2          -0.05489   0.95300
           d3          -0.33597   0.33597   1.34386
           d4          -0.28107   0.05489   0.33597   0.95300
           d5           0.05489  -0.28107  -0.33597  -0.05489   0.95300
           d6           0.00000   0.00000   0.00000  -0.00000  -0.00000
           d7           0.00000   0.00000  -0.00000  -0.00000  -0.00000
           d8          -0.00000  -0.00000   0.00000   0.00000   0.00000
           d9           0.00000   0.00000   0.00000  -0.00000  -0.00000
           d10         -0.00000  -0.00000  -0.00000   0.00000   0.00000
           d11          0.00000  -0.00000  -0.00000  -0.00000  -0.00000
           d12          0.00000   0.00000  -0.00000  -0.00000  -0.00000
           d13          0.00000   0.00000  -0.00000  -0.00000  -0.00000
           d14         -0.00000  -0.00000  -0.00000   0.00000   0.00000
           d15          0.00000   0.00000  -0.00000  -0.00000  -0.00000
           d16         -0.00000  -0.00000  -0.00000   0.00000   0.00000
           d17         -0.00000  -0.00000  -0.00000   0.00000   0.00000
           d18         -0.00000  -0.00000   0.00000   0.00000   0.00000
           d19         -0.00000  -0.00000  -0.00000   0.00000   0.00000
                          d6        d7        d8        d9        d10
           d6           0.45621
           d7          -0.00000   0.47688
           d8          -0.00000   0.00000   0.47688
           d9           0.00000  -0.00000   0.00000   0.47688
           d10          0.00000  -0.00000  -0.00000   0.00000   0.47688
           d11          0.00000  -0.00000   0.00000   0.00000   0.00000
           d12         -0.00000   0.00000  -0.00000   0.00000   0.00000
           d13         -0.00000   0.00000  -0.00000   0.00000   0.00000
           d14          0.00000   0.00000   0.00000  -0.00000  -0.00000
           d15         -0.00000  -0.00000  -0.00000   0.00000   0.00000
           d16         -0.00000  -0.00000   0.00000  -0.00000  -0.00000
           d17          0.00000  -0.00000   0.00000  -0.00000  -0.00000
           d18          0.00000   0.00000   0.00000  -0.00000  -0.00000
           d19         -0.00000   0.00000   0.00000  -0.00000  -0.00000
                          d11       d12       d13       d14       d15
           d11          0.47688
           d12          0.00000   0.02330
           d13          0.00000  -0.00000   1.04823
           d14         -0.00000   0.00000   0.00000   0.47688
           d15          0.00000   0.00000  -0.00000   0.00000   0.47688
           d16         -0.00000   0.00000   0.00000   0.00000   0.00000
           d17         -0.00000  -0.00000  -0.00000   0.00000  -0.00000
           d18          0.00000  -0.00000   0.00000   0.00000  -0.00000
           d19          0.00000   0.00000   0.00000  -0.00000   0.00000
                          d16       d17       d18       d19
           d16          0.02721
           d17          0.00000   1.79711
           d18          0.00000   0.00000   0.02721
           d19          0.00000  -0.00000  -0.00000   1.79711
 ITU=  0
     Eigenvalues ---    0.02330   0.02721   0.02721   0.45621   0.47688
     Eigenvalues ---    0.47688   0.47688   0.47688   0.47688   0.47688
     Eigenvalues ---    0.47688   0.67193   0.67193   0.67193   1.04823
     Eigenvalues ---    1.12429   1.79711   1.79711   2.01579
 RFO step:  Lambda=-1.06372714D+00 EMin= 2.33007068D-02
 Linear search not attempted -- first point.
 Maximum step size (   0.300) exceeded in Quadratic search.
    -- Step size scaled by   0.482
 Variable       Old X    -DE/DX   Delta X   Delta X   Delta X     New X
                                 (Linear)    (Quad)   (Total)
    d1        2.45664   0.03729   0.00000   0.02143   0.02143   2.47807
    d2        2.45664   0.15288   0.00000   0.03345   0.03345   2.49009
    d3        2.45664   0.22091   0.00000   0.04127   0.04127   2.49792
    d4        2.45664   0.18362   0.00000   0.03993   0.03993   2.49657
    d5        2.45664   0.07829   0.00000   0.03076   0.03076   2.48740
    d6        2.64562  -0.02728   0.00000  -0.00865  -0.00865   2.63696
    d7        1.88973   0.07469   0.00000   0.02337   0.02337   1.91310
    d8        1.88973   0.07383   0.00000   0.02310   0.02310   1.91283
    d9        1.88973   0.07427   0.00000   0.02324   0.02324   1.91297
   d10        1.88973   0.07383   0.00000   0.02310   0.02310   1.91283
   d11        1.88973   0.07469   0.00000   0.02337   0.02337   1.91310
   d12        5.29123   0.00028   0.00000   0.00013   0.00013   5.29136
   d13        2.26767   0.01273   0.00000   0.00291   0.00291   2.27058
   d14        1.88973   0.08558   0.00000   0.02678   0.02678   1.91651
   d15        1.88973   0.08558   0.00000   0.02678   0.02678   1.91651
   d16        4.34637  -0.00003   0.00000  -0.00001  -0.00001   4.34636
   d17        1.70075   1.18662   0.00000   0.19995   0.19995   1.90070
   d18        4.34637  -0.00003   0.00000  -0.00001  -0.00001   4.34636
   d19        1.70075   1.18662   0.00000   0.19995   0.19995   1.90070
         Item               Value     Threshold  Converged?
 Maximum Force            1.186618     0.000450     NO 
 RMS     Force            0.395545     0.000300     NO 
 Maximum Displacement     0.199951     0.001800     NO 
 RMS     Displacement     0.068825     0.001200     NO 
 Predicted change in Energy=-4.370556D-01
 GradGradGradGradGradGradGradGradGradGradGradGradGradGradGradGradGradGrad

 ---------------------------------------------------------------------------------------------------
                            Z-MATRIX (ANGSTROMS AND DEGREES)
   CD    Cent   Atom    N1       Length/X        N2       Alpha/Y        N3        Beta/Z          J
 ---------------------------------------------------------------------------------------------------
      1      1  C 
      2      2  C        1   1.311339(     1)
      3      3  C        2   1.317701(     2)      1  120.000(    20)
      4      4  C        3   1.321841(     3)      2  120.000(    21)      1    0.000(    38)      0
      5      5  C        4   1.321129(     4)      3  120.000(    22)      2    0.000(    39)      0
      6      6  C        5   1.316275(     5)      4  120.000(    23)      3    0.000(    40)      0
      7      7  F        1   1.395421(     6)      2  120.000(    24)      3  180.000(    41)      0
      8      8  H        2   1.012367(     7)      3  120.000(    25)      4  180.000(    42)      0
      9      9  H        3   1.012225(     8)      4  120.000(    26)      5  180.000(    43)      0
     10     10  H        4   1.012299(     9)      5  120.000(    27)      6  180.000(    44)      0
     11     11  H        5   1.012225(    10)      6  120.000(    28)      1  180.000(    45)      0
     12     12  H        6   1.012367(    11)      1  120.000(    29)      2  180.000(    46)      0
     13     13  O        7   2.800066(    12)      1  179.900(    30)      3  180.000(    47)      0
     14     14  C       13   1.201537(    13)      1  179.900(    31)      2  180.000(    48)      0
     15     15  H       14   1.014171(    14)      1  120.000(    32)      2   90.000(    49)      0
     16     16  H       14   1.014171(    15)      1  120.000(    33)      2  -90.000(    50)      0
     17     17  H        7   2.299994(    16)      1  100.000(    34)      2   90.000(    51)      0
     18     18  Br      17   1.005809(    17)      7  160.000(    35)      1    0.000(    52)      0
     19     19  H        7   2.299994(    18)      1  100.000(    36)      2  -90.000(    53)      0
     20     20  Br      19   1.005809(    19)      7  160.000(    37)      1    0.000(    54)      0
 ---------------------------------------------------------------------------------------------------
                         Z-Matrix orientation:                         
 ---------------------------------------------------------------------
 Center     Atomic      Atomic             Coordinates (Angstroms)
 Number     Number       Type             X           Y           Z
 ---------------------------------------------------------------------
      1          6           0        0.000000    0.000000    0.000000
      2          6           0        0.000000    0.000000    1.311339
      3          6           0        1.141162    0.000000    1.970189
      4          6           0        2.285910    0.000000    1.309269
      5          6           0        2.285910    0.000000   -0.011860
      6          6           0        1.145983    0.000000   -0.669998
      7          9           0       -1.208470   -0.000000   -0.697710
      8          1           0       -0.876736   -0.000000    1.817523
      9          1           0        1.141162   -0.000000    2.982415
     10          1           0        3.162587   -0.000000    1.815418
     11          1           0        3.162523   -0.000000   -0.517973
     12          1           0        1.140458   -0.000000   -1.682350
     13          8           0       -3.630951   -0.000000   -2.101974
     14          6           0       -4.669760   -0.000000   -2.705768
     15          1           0       -5.108515    0.878298   -2.959993
     16          1           0       -5.108515   -0.878298   -2.959993
     17          1           0       -1.554351    2.265052   -0.897405
     18         35           0       -1.403094    3.255581   -0.810077
     19          1           0       -1.554351   -2.265052   -0.897405
     20         35           0       -1.403094   -3.255581   -0.810077
 ---------------------------------------------------------------------
                    Distance matrix (angstroms):
                    1          2          3          4          5
     1  C    0.000000
     2  C    1.311339   0.000000
     3  C    2.276817   1.317701   0.000000
     4  C    2.634307   2.285911   1.321841   0.000000
     5  C    2.285941   2.641258   2.288880   1.321129   0.000000
     6  C    1.327469   2.288880   2.640192   2.284060   1.316275
     7  F    1.395421   2.344500   3.555061   4.029722   3.561051
     8  H    2.017933   1.012367   2.023665   3.203225   3.653625
     9  H    3.193282   2.023548   1.012225   2.027281   3.205641
    10  H    3.646601   3.202507   2.027341   1.012299   2.026698
    11  H    3.204661   3.653483   3.205753   2.026638   1.012225
    12  H    2.032473   3.203564   3.652540   3.203411   2.025487
    13  O    4.195486   4.983424   6.273403   6.829775   6.275175
    14  C    5.397022   6.159855   7.458646   8.031306   7.459122
    15  H    5.969078   6.716592   8.008531   8.583445   8.008771
    16  H    5.969078   6.716592   8.008531   8.583445   8.008771
    17  H    2.889949   3.524914   4.540854   4.974684   4.545576
    18  Br   3.636441   4.131330   4.980153   5.357162   4.984447
    19  H    2.889949   3.524914   4.540854   4.974684   4.545576
    20  Br   3.636441   4.131330   4.980153   5.357162   4.984447
                    6          7          8          9         10
     6  C    0.000000
     7  F    2.354616   0.000000
     8  H    3.206111   2.537015   0.000000
     9  H    3.652416   4.366245   2.329997   0.000000
    10  H    3.200622   5.042018   4.039323   2.334103   0.000000
    11  H    2.022263   4.374687   4.665850   4.042105   2.333391
    12  H    1.012367   2.546955   4.039577   4.664765   4.040221
    13  O    4.986948   2.800066   4.790423   6.973096   7.842073
    14  C    6.161755   4.001603   5.903151   8.131559   9.043605
    15  H    6.718201   4.593439   6.442361   8.668453   9.590989
    16  H    6.718201   4.593439   6.442361   8.668453   9.590989
    17  H    3.531852   2.299994   3.600063   5.239204   5.894012
    18  Br   4.137175   3.263328   4.216650   5.608479   6.191726
    19  H    3.531852   2.299994   3.600063   5.239204   5.894012
    20  Br   4.137175   3.263328   4.216650   5.608479   6.191726
                   11         12         13         14         15
    11  H    0.000000
    12  H    2.333350   0.000000
    13  O    6.975698   4.789826   0.000000
    14  C    8.132104   5.899663   1.201537   0.000000
    15  H    8.668618   6.438435   1.921145   1.014171   0.000000
    16  H    8.668618   6.438435   1.921145   1.014171   1.756596
    17  H    5.246269   3.606743   3.300562   4.255162   4.336984
    18  Br   5.615068   4.222478   4.151042   4.986337   4.899363
    19  H    5.246269   3.606743   3.300562   4.255162   5.173682
    20  Br   5.615068   4.222478   4.151042   4.986337   5.953254
                   16         17         18         19         20
    16  H    0.000000
    17  H    5.173682   0.000000
    18  Br   5.953254   1.005809   0.000000
    19  H    4.336984   4.530103   5.523394   0.000000
    20  Br   4.899363   5.523394   6.511161   1.005809   0.000000
 Stoichiometry    C7H9Br2FO
 Framework group  CS[SG(C7H5FO),X(H4Br2)]
 Deg. of freedom    34
 Full point group                 CS      NOp   2
 Largest Abelian subgroup         CS      NOp   2
 Largest concise Abelian subgroup CS      NOp   2
                         Standard orientation:                         
 ---------------------------------------------------------------------
 Center     Atomic      Atomic             Coordinates (Angstroms)
 Number     Number       Type             X           Y           Z
 ---------------------------------------------------------------------
      1          6           0       -0.003005   -1.094524   -0.000000
      2          6           0       -1.138658   -1.750194   -0.000000
      3          6           0       -1.138658   -3.067895   -0.000000
      4          6           0        0.006090   -3.728815   -0.000000
      5          6           0        1.150222   -3.068251   -0.000000
      6          6           0        1.150222   -1.751976   -0.000000
      7          9           0       -0.003005    0.300896    0.000000
      8          1           0       -2.015394   -1.244010   -0.000000
      9          1           0       -2.015271   -3.574007   -0.000000
     10          1           0        0.006090   -4.741114   -0.000000
     11          1           0        2.026835   -3.574364   -0.000000
     12          1           0        2.024182   -1.241015   -0.000000
     13          8           0        0.001882    3.100958    0.000000
     14          6           0        0.005379    4.302491    0.000000
     15          1           0        0.006167    4.809576    0.878298
     16          1           0        0.006167    4.809576   -0.878298
     17          1           0       -0.003005    0.700286    2.265052
     18         35           0       -0.003005    0.525629    3.255581
     19          1           0       -0.003005    0.700286   -2.265052
     20         35           0       -0.003005    0.525629   -3.255581
 ---------------------------------------------------------------------
 Rotational constants (GHZ):           0.4680003           0.2864792           0.1882008
 Standard basis: 6-311++G(d,p) (5D, 7F)
 There are   248 symmetry adapted cartesian basis functions of A'  symmetry.
 There are   124 symmetry adapted cartesian basis functions of A"  symmetry.
 There are   236 symmetry adapted basis functions of A'  symmetry.
 There are   121 symmetry adapted basis functions of A"  symmetry.
   357 basis functions,   593 primitive gaussians,   372 cartesian basis functions
    69 alpha electrons       69 beta electrons
       nuclear repulsion energy      1123.1916264743 Hartrees.
 NAtoms=   20 NActive=   20 NUniq=   17 SFac= 1.38D+00 NAtFMM=   60 NAOKFM=F Big=F
 Integral buffers will be    131072 words long.
 Raffenetti 2 integral format.
 Two-electron integral symmetry is turned on.
 One-electron integrals computed using PRISM.
 NBasis=   357 RedAO= T EigKep=  4.20D-06  NBF=   236   121
 NBsUse=   356 1.00D-06 EigRej=  4.67D-07 NBFU=   235   121
 Initial guess from the checkpoint file:  "model_H2b.chk"
 B after Tr=     0.000000   -0.000000   -0.000000
         Rot=    1.000000   -0.000000    0.000000   -0.000698 Ang=  -0.08 deg.
 Initial guess orbital symmetries:
       Occupied  (A") (A') (A") (A') (A") (A') (A') (A") (A') (A")
                 (A') (A') (A') (A') (A') (A') (A') (A') (A') (A")
                 (A') (A") (A') (A') (A") (A') (A") (A") (A') (A')
                 (A") (A') (A") (A') (A") (A') (A") (A') (A') (A')
                 (A") (A') (A') (A') (A') (A') (A') (A') (A") (A')
                 (A') (A") (A') (A') (A') (A") (A') (A') (A") (A')
                 (A') (A') (A") (A") (A') (A') (A") (A") (A")
       Virtual   (A') (A') (A') (A') (A') (A") (A") (A") (A') (A')
                 (A") (A') (A") (A') (A") (A') (A') (A") (A') (A')
                 (A") (A") (A') (A') (A') (A") (A') (A') (A') (A')
                 (A') (A") (A') (A") (A') (A") (A') (A') (A') (A")
                 (A') (A") (A') (A') (A') (A') (A") (A') (A') (A")
                 (A') (A") (A') (A') (A') (A') (A") (A') (A') (A')
                 (A') (A') (A") (A') (A') (A') (A") (A') (A') (A")
                 (A') (A') (A') (A') (A") (A') (A') (A") (A') (A')
                 (A') (A') (A") (A") (A') (A') (A') (A") (A") (A')
                 (A") (A') (A") (A') (A") (A') (A') (A") (A') (A")
                 (A") (A') (A') (A') (A") (A') (A') (A') (A") (A')
                 (A') (A') (A') (A') (A') (A') (A") (A') (A') (A')
                 (A') (A") (A') (A') (A") (A") (A') (A') (A") (A")
                 (A') (A') (A") (A") (A") (A") (A') (A') (A') (A')
                 (A") (A') (A') (A') (A") (A') (A') (A') (A') (A")
                 (A") (A") (A") (A') (A') (A") (A') (A") (A') (A')
                 (A") (A') (A') (A') (A") (A') (A') (A') (A") (A')
                 (A") (A') (A") (A') (A") (A") (A') (A") (A') (A')
                 (A") (A') (A') (A') (A') (A") (A") (A') (A') (A")
                 (A') (A") (A') (A') (A") (A') (A') (A') (A') (A")
                 (A') (A') (A') (A') (A") (A') (A') (A') (A") (A")
                 (A') (A") (A") (A") (A') (A") (A') (A') (A') (A")
                 (A') (A') (A') (A') (A') (A") (A') (A') (A') (A')
                 (A') (A") (A") (A') (A") (A') (A') (A') (A') (A')
                 (A") (A') (A') (A") (A") (A') (A') (A") (A') (A')
                 (A") (A') (A') (A') (A') (A") (A') (A") (A') (A')
                 (A') (A") (A") (A') (A") (A') (A') (A") (A') (A')
                 (A') (A') (A') (A') (A') (A') (A") (A') (A') (A")
                 (A') (A") (A') (A') (A") (A') (A")
 ExpMin= 3.50D-02 ExpMax= 4.40D+05 ExpMxC= 1.51D+04 IAcc=3 IRadAn=         5 AccDes= 0.00D+00
 Harris functional with IExCor= 1009 and IRadAn=       5 diagonalized for initial guess.
 HarFok:  IExCor= 1009 AccDes= 0.00D+00 IRadAn=         5 IDoV= 1 UseB2=F ITyADJ=14
 ICtDFT=  3500011 ScaDFX=  1.000000  1.000000  1.000000  1.000000
 FoFCou: FMM=F IPFlag=           0 FMFlag=      100000 FMFlg1=           0
         NFxFlg=           0 DoJE=T BraDBF=F KetDBF=T FulRan=T
         wScrn=  0.000000 ICntrl=       500 IOpCl=  0 I1Cent=   200000004 NGrid=           0
         NMat0=    1 NMatS0=      1 NMatT0=    0 NMatD0=    1 NMtDS0=    0 NMtDT0=    0
 Petite list used in FoFCou.
 Requested convergence on RMS density matrix=1.00D-08 within 128 cycles.
 Requested convergence on MAX density matrix=1.00D-06.
 Requested convergence on             energy=1.00D-06.
 No special actions if energy rises.
 SCF Done:  E(RM062X) =  -5595.04275855     A.U. after   14 cycles
            NFock= 14  Conv=0.27D-08     -V/T= 2.0006
 Calling FoFJK, ICntrl=      2127 FMM=F ISym2X=1 I1Cent= 0 IOpClX= 0 NMat=1 NMatS=1 NMatT=0.
 ***** Axes restored to original set *****
 -------------------------------------------------------------------
 Center     Atomic                   Forces (Hartrees/Bohr)
 Number     Number              X              Y              Z
 -------------------------------------------------------------------
      1        6          -0.060228021   -0.000000000   -0.052860656
      2        6          -0.039386351    0.000000000    0.015027684
      3        6           0.008939874   -0.000000000    0.020392905
      4        6           0.021491137    0.000000000    0.015358576
      5        6           0.021196763    0.000000000   -0.005857179
      6        6          -0.021297692    0.000000000   -0.032479939
      7        9           0.024336792    0.000000000    0.014064423
      8        1          -0.054187556   -0.000000000    0.028947281
      9        1          -0.001331263   -0.000000000    0.060641140
     10        1           0.052765285    0.000000000    0.030537764
     11        1           0.051906927    0.000000000   -0.031539617
     12        1          -0.002419976    0.000000000   -0.061191763
     13        8           0.006910924    0.000000000    0.003953698
     14        6           0.059285880    0.000000000    0.034565816
     15        1          -0.033214978    0.059383413   -0.019325907
     16        1          -0.033214978   -0.059383413   -0.019325907
     17        1          -0.102881654   -0.665094237   -0.059405728
     18       35           0.102105271    0.664385156    0.058951569
     19        1          -0.102881654    0.665094237   -0.059405728
     20       35           0.102105271   -0.664385156    0.058951569
 -------------------------------------------------------------------
 Cartesian Forces:  Max     0.665094237 RMS     0.176498730
 -----------------------------------------------------------------------------------------------
                       Internal Coordinate Forces (Hartree/Bohr or radian)
  Cent   Atom   N1       Length/X         N2         Alpha/Y        N3         Beta/Z          J
 -----------------------------------------------------------------------------------------------
      1  C 
      2  C        1   0.038463(     1)
      3  C        2   0.110216(     2)      1   0.091377(    20)
      4  C        3   0.149655(     3)      2   0.261803(    21)      1   0.000000(    38)     0
      5  C        4   0.132442(     4)      3   0.293056(    22)      2   0.000000(    39)     0
      6  C        5   0.068758(     5)      4   0.171643(    23)      3   0.000000(    40)     0
      7  F        1  -0.026042(     6)      2  -0.000011(    24)      3  -0.000000(    41)     0
      8  H        2   0.061401(     7)      3   0.003873(    25)      4  -0.000000(    42)     0
      9  H        3   0.060641(     8)      4   0.002546(    26)      5  -0.000000(    43)     0
     10  H        4   0.060965(     9)      5   0.000122(    27)      6   0.000000(    44)     0
     11  H        5   0.060723(    10)      6  -0.002603(    28)      1   0.000000(    45)     0
     12  H        6   0.061204(    11)      1  -0.003991(    29)      2   0.000000(    46)     0
     13  O        7   0.000268(    12)      1   0.000011(    30)      3  -0.000000(    47)     0
     14  C       13   0.008230(    13)      1   0.000101(    31)      2  -0.000000(    48)     0
     15  H       14   0.070642(    14)      1   0.006876(    32)      2   0.000115(    49)     0
     16  H       14   0.070642(    15)      1   0.006876(    33)      2  -0.000115(    50)     0
     17  H        7  -0.000542(    16)      1   0.002977(    34)      2   0.000020(    51)     0
     18  Br      17   0.674765(    17)      7  -0.001409(    35)      1  -0.000001(    52)     0
     19  H        7  -0.000542(    18)      1   0.002977(    36)      2  -0.000020(    53)     0
     20  Br      19   0.674765(    19)      7  -0.001409(    37)      1   0.000001(    54)     0
 -----------------------------------------------------------------------------------------------
 Internal  Forces:  Max     0.674765040 RMS     0.148487825

 GradGradGradGradGradGradGradGradGradGradGradGradGradGradGradGradGradGrad
 Berny optimization.
 Search for a local minimum.
 Step number   2 out of a maximum of   29
 All quantities printed in internal units (Hartrees-Bohrs-Radians)
 Update second derivatives using D2CorN and points    1    2
 DE= -3.97D-01 DEPred=-4.37D-01 R= 9.09D-01
 TightC=F SS=  1.41D+00  RLast= 3.00D-01 DXNew= 5.0454D-01 9.0000D-01
 Trust test= 9.09D-01 RLast= 3.00D-01 DXMaxT set to 5.05D-01
 The second derivative matrix:
                          d1        d2        d3        d4        d5
           d1           0.95387
           d2          -0.05368   0.95469
           d3          -0.33410   0.33862   1.34784
           d4          -0.27965   0.05686   0.33906   0.95528
           d5           0.05605  -0.27946  -0.33345  -0.05302   0.95454
           d6           0.00015   0.00028   0.00020   0.00035   0.00025
           d7           0.00073   0.00099   0.00162   0.00114   0.00095
           d8           0.00073   0.00099   0.00161   0.00114   0.00095
           d9           0.00074   0.00100   0.00163   0.00116   0.00096
           d10          0.00072   0.00097   0.00159   0.00112   0.00094
           d11          0.00075   0.00102   0.00166   0.00119   0.00099
           d12          0.00000   0.00001   0.00001   0.00001   0.00001
           d13          0.00023   0.00034   0.00047   0.00041   0.00032
           d14          0.00080   0.00108   0.00179   0.00124   0.00104
           d15          0.00080   0.00108   0.00179   0.00124   0.00104
           d16          0.00006   0.00010   0.00012   0.00011   0.00009
           d17          0.02221   0.03339   0.04460   0.03953   0.03107
           d18          0.00006   0.00010   0.00012   0.00011   0.00009
           d19          0.02221   0.03339   0.04460   0.03953   0.03107
                          d6        d7        d8        d9        d10
           d6           0.45595
           d7           0.00025   0.47744
           d8           0.00024   0.00056   0.47744
           d9           0.00024   0.00057   0.00057   0.47746
           d10          0.00025   0.00055   0.00055   0.00056   0.47742
           d11          0.00024   0.00058   0.00058   0.00059   0.00057
           d12          0.00000   0.00000   0.00000   0.00000   0.00000
           d13         -0.00003   0.00022   0.00022   0.00022   0.00022
           d14          0.00030   0.00060   0.00060   0.00061   0.00059
           d15          0.00030   0.00060   0.00060   0.00061   0.00059
           d16         -0.00002   0.00007   0.00007   0.00007   0.00007
           d17         -0.00433   0.02218   0.02199   0.02217   0.02190
           d18         -0.00002   0.00007   0.00007   0.00007   0.00007
           d19         -0.00433   0.02218   0.02199   0.02217   0.02190
                          d11       d12       d13       d14       d15
           d11          0.47749
           d12          0.00000   0.02330
           d13          0.00023   0.00000   1.04828
           d14          0.00063   0.00000   0.00025   0.47753
           d15          0.00063   0.00000   0.00025   0.00065   0.47753
           d16          0.00007   0.00000   0.00001   0.00008   0.00008
           d17          0.02240   0.00012   0.00408   0.02510   0.02510
           d18          0.00007   0.00000   0.00001   0.00008   0.00008
           d19          0.02240   0.00012   0.00408   0.02510   0.02510
                          d16       d17       d18       d19
           d16          0.02721
           d17          0.00056   2.13596
           d18         -0.00000   0.00056   0.02721
           d19          0.00056   0.33885   0.00056   2.13596
 ITU=  1  0
 Linear search step of   0.600 exceeds DXMaxT=   0.505 but not scaled.
 Quartic linear search produced a step of  2.00000.
 Variable       Old X    -DE/DX   Delta X   Delta X   Delta X     New X
                                 (Linear)    (Quad)   (Total)
    d1        2.47807   0.03846   0.04286   0.00000   0.04286   2.52093
    d2        2.49009   0.11022   0.06690   0.00000   0.06690   2.55699
    d3        2.49792   0.14965   0.08255   0.00000   0.08255   2.58047
    d4        2.49657   0.13244   0.07986   0.00000   0.07986   2.57643
    d5        2.48740   0.06876   0.06151   0.00000   0.06151   2.54891
    d6        2.63696  -0.02604  -0.01731   0.00000  -0.01731   2.61966
    d7        1.91310   0.06140   0.04674   0.00000   0.04674   1.95984
    d8        1.91283   0.06064   0.04621   0.00000   0.04621   1.95903
    d9        1.91297   0.06096   0.04648   0.00000   0.04648   1.95945
   d10        1.91283   0.06072   0.04621   0.00000   0.04621   1.95903
   d11        1.91310   0.06120   0.04674   0.00000   0.04674   1.95984
   d12        5.29136   0.00027   0.00025   0.00000   0.00025   5.29161
   d13        2.27058   0.00823   0.00581   0.00000   0.00581   2.27639
   d14        1.91651   0.07064   0.05356   0.00000   0.05356   1.97006
   d15        1.91651   0.07064   0.05356   0.00000   0.05356   1.97006
   d16        4.34636  -0.00054  -0.00002   0.00000  -0.00002   4.34633
   d17        1.90070   0.67477   0.39990   0.00000   0.39990   2.30061
   d18        4.34636  -0.00054  -0.00002   0.00000  -0.00002   4.34633
   d19        1.90070   0.67477   0.39990   0.00000   0.39990   2.30061
         Item               Value     Threshold  Converged?
 Maximum Force            0.674765     0.000450     NO 
 RMS     Force            0.229213     0.000300     NO 
 Maximum Displacement     0.399902     0.001800     NO 
 RMS     Displacement     0.137649     0.001200     NO 
 Predicted change in Energy=-1.706241D-01
 GradGradGradGradGradGradGradGradGradGradGradGradGradGradGradGradGradGrad

 ---------------------------------------------------------------------------------------------------
                            Z-MATRIX (ANGSTROMS AND DEGREES)
   CD    Cent   Atom    N1       Length/X        N2       Alpha/Y        N3        Beta/Z          J
 ---------------------------------------------------------------------------------------------------
      1      1  C 
      2      2  C        1   1.334018(     1)
      3      3  C        2   1.353102(     2)      1  120.000(    20)
      4      4  C        3   1.365524(     3)      2  120.000(    21)      1    0.000(    38)      0
      5      5  C        4   1.363387(     4)      3  120.000(    22)      2    0.000(    39)      0
      6      6  C        5   1.348826(     5)      4  120.000(    23)      3    0.000(    40)      0
      7      7  F        1   1.386262(     6)      2  120.000(    24)      3  180.000(    41)      0
      8      8  H        2   1.037102(     7)      3  120.000(    25)      4  180.000(    42)      0
      9      9  H        3   1.036676(     8)      4  120.000(    26)      5  180.000(    43)      0
     10     10  H        4   1.036896(     9)      5  120.000(    27)      6  180.000(    44)      0
     11     11  H        5   1.036676(    10)      6  120.000(    28)      1  180.000(    45)      0
     12     12  H        6   1.037102(    11)      1  120.000(    29)      2  180.000(    46)      0
     13     13  O        7   2.800199(    12)      1  179.900(    30)      3  180.000(    47)      0
     14     14  C       13   1.204612(    13)      1  179.900(    31)      2  180.000(    48)      0
     15     15  H       14   1.042513(    14)      1  120.000(    32)      2   90.000(    49)      0
     16     16  H       14   1.042513(    15)      1  120.000(    33)      2  -90.000(    50)      0
     17     17  H        7   2.299981(    16)      1  100.000(    34)      2   90.000(    51)      0
     18     18  Br      17   1.217428(    17)      7  160.000(    35)      1    0.000(    52)      0
     19     19  H        7   2.299981(    18)      1  100.000(    36)      2  -90.000(    53)      0
     20     20  Br      19   1.217428(    19)      7  160.000(    37)      1    0.000(    54)      0
 ---------------------------------------------------------------------------------------------------
                         Z-Matrix orientation:                         
 ---------------------------------------------------------------------
 Center     Atomic      Atomic             Coordinates (Angstroms)
 Number     Number       Type             X           Y           Z
 ---------------------------------------------------------------------
      1          6           0        0.000000    0.000000    0.000000
      2          6           0        0.000000    0.000000    1.334018
      3          6           0        1.171820    0.000000    2.010568
      4          6           0        2.354399    0.000000    1.327806
      5          6           0        2.354399    0.000000   -0.035580
      6          6           0        1.186282    0.000000   -0.709993
      7          9           0       -1.200538   -0.000000   -0.693131
      8          1           0       -0.898156   -0.000000    1.852569
      9          1           0        1.171820   -0.000000    3.047245
     10          1           0        3.252377   -0.000000    1.846254
     11          1           0        3.252187   -0.000000   -0.553919
     12          1           0        1.169980   -0.000000   -1.746967
     13          8           0       -3.623135   -0.000000   -2.097461
     14          6           0       -4.664601   -0.000000   -2.702803
     15          1           0       -5.115615    0.902843   -2.964134
     16          1           0       -5.115615   -0.902843   -2.964134
     17          1           0       -1.546418    2.265039   -0.892825
     18         35           0       -1.363337    3.463972   -0.787123
     19          1           0       -1.546418   -2.265039   -0.892825
     20         35           0       -1.363337   -3.463972   -0.787123
 ---------------------------------------------------------------------
                    Distance matrix (angstroms):
                    1          2          3          4          5
     1  C    0.000000
     2  C    1.334018   0.000000
     3  C    2.327133   1.353102   0.000000
     4  C    2.703010   2.354408   1.365524   0.000000
     5  C    2.354668   2.723783   2.363307   1.363387   0.000000
     6  C    1.382518   2.363312   2.720600   2.348856   1.348826
     7  F    1.386262   2.355976   3.596954   4.089226   3.615239
     8  H    2.058809   1.037102   2.075998   3.294616   3.760881
     9  H    3.264791   2.075647   1.036676   2.086854   3.301864
    10  H    3.739868   3.292468   2.087035   1.036896   2.085106
    11  H    3.299022   3.760455   3.302199   2.084925   1.036676
    12  H    2.102557   3.295652   3.757536   3.295008   2.081272
    13  O    4.186460   4.990205   6.314072   6.889366   6.323153
    14  C    5.391071   6.168826   7.501979   8.093959   7.508691
    15  H    5.980864   6.742311   8.068125   8.662390   8.074198
    16  H    5.980864   6.742311   8.068125   8.662390   8.074198
    17  H    2.884259   3.532795   4.576999   5.027721   4.591476
    18  Br   3.804912   4.284510   5.123788   5.503961   5.136680
    19  H    2.884259   3.532795   4.576999   5.027721   4.591476
    20  Br   3.804912   4.284510   5.123788   5.503961   5.136680
                    6          7          8          9         10
     6  C    0.000000
     7  F    2.386880   0.000000
     8  H    3.303272   2.563595   0.000000
     9  H    3.757266   4.429277   2.389991   0.000000
    10  H    3.286815   5.126103   4.150539   2.402310   0.000000
    11  H    2.071793   4.454901   4.797555   4.158882   2.400173
    12  H    1.037102   2.594210   4.151366   4.794212   4.153025
    13  O    5.005552   2.800199   4.798775   7.032751   7.926257
    14  C    6.180948   4.004811   5.910796   8.193098   9.130852
    15  H    6.753531   4.615236   6.465501   8.745493   9.694238
    16  H    6.753531   4.615236   6.465501   8.745493   9.694238
    17  H    3.554079   2.299981   3.617711   5.295599   5.971716
    18  Br   4.301814   3.469069   4.379893   5.755736   6.343390
    19  H    3.554079   2.299981   3.617711   5.295599   5.971716
    20  Br   4.301814   3.469069   4.379893   5.755736   6.343390
                   11         12         13         14         15
    11  H    0.000000
    12  H    2.399782   0.000000
    13  O    7.046458   4.805912   0.000000
    14  C    8.203245   5.912356   1.204612   0.000000
    15  H    8.754678   6.465704   1.947754   1.042513   0.000000
    16  H    8.754678   6.465704   1.947754   1.042513   1.805685
    17  H    5.317130   3.638513   3.300652   4.257873   4.345696
[...]
      8          1           0       -2.135165   -1.132138    0.000000
      9          1           0       -2.134110   -3.597984    0.000000
     10          1           0        0.004370   -4.832995    0.000000
     11          1           0        2.149697   -3.593940    0.000000
     12          1           0        2.139108   -1.094450    0.000000
     13          8           0        0.001425    3.101231   -0.000000
     14          6           0        0.004919    4.301112   -0.000000
     15          1           0        0.005781    4.852724    0.955422
     16          1           0        0.005781    4.852724   -0.955422
     17          1           0       -0.003340    0.735369    2.067011
     18         35           0       -0.003340    0.488010    3.469853
     19          1           0       -0.003340    0.735369   -2.067011
     20         35           0       -0.003340    0.488010   -3.469853
 ---------------------------------------------------------------------
 Rotational constants (GHZ):           0.4700825           0.2528329           0.1744014

 **********************************************************************

            Population analysis using the SCF Density.

 **********************************************************************

 Orbital symmetries:
       Occupied  (A") (A') (A") (A') (A") (A') (A') (A") (A') (A")
                 (A') (A') (A') (A') (A') (A') (A') (A') (A') (A")
                 (A') (A") (A') (A") (A') (A") (A') (A") (A') (A')
                 (A") (A') (A") (A') (A") (A') (A") (A') (A') (A')
                 (A") (A') (A') (A') (A') (A') (A') (A') (A") (A")
                 (A') (A') (A') (A') (A') (A') (A') (A') (A") (A")
                 (A') (A') (A") (A") (A') (A') (A") (A") (A")
       Virtual   (A') (A') (A') (A") (A') (A") (A') (A") (A') (A')
                 (A") (A') (A") (A') (A") (A') (A') (A') (A") (A')
                 (A') (A") (A') (A") (A") (A') (A') (A") (A') (A')
                 (A') (A') (A") (A') (A") (A') (A') (A") (A') (A')
                 (A') (A') (A") (A') (A') (A") (A') (A") (A') (A')
                 (A") (A') (A') (A') (A') (A') (A') (A') (A") (A')
                 (A') (A') (A') (A') (A") (A') (A') (A') (A') (A')
                 (A") (A") (A') (A') (A') (A") (A') (A") (A') (A')
                 (A') (A') (A') (A") (A') (A') (A') (A") (A') (A")
                 (A") (A") (A') (A') (A") (A") (A') (A") (A') (A")
                 (A") (A') (A") (A') (A') (A') (A') (A') (A') (A")
                 (A') (A") (A') (A') (A') (A') (A') (A') (A') (A')
                 (A') (A") (A') (A") (A') (A') (A") (A') (A') (A")
                 (A") (A') (A") (A") (A") (A') (A") (A') (A') (A')
                 (A") (A") (A') (A') (A") (A') (A') (A") (A') (A')
                 (A") (A") (A') (A') (A') (A') (A") (A') (A') (A")
                 (A') (A") (A') (A') (A") (A') (A') (A") (A') (A")
                 (A") (A') (A') (A') (A") (A") (A') (A') (A') (A')
                 (A") (A') (A") (A") (A') (A') (A") (A') (A') (A')
                 (A") (A") (A') (A") (A') (A') (A") (A') (A') (A')
                 (A") (A') (A') (A') (A') (A') (A') (A') (A") (A')
                 (A') (A") (A') (A") (A') (A") (A") (A") (A') (A')
                 (A") (A') (A') (A') (A') (A') (A') (A') (A') (A")
                 (A') (A") (A') (A") (A') (A') (A') (A") (A') (A')
                 (A') (A') (A") (A") (A') (A') (A") (A') (A") (A')
                 (A') (A") (A') (A') (A') (A") (A') (A") (A') (A')
                 (A") (A') (A") (A') (A") (A') (A') (A") (A') (A')
                 (A') (A') (A') (A') (A') (A') (A") (A') (A') (A")
                 (A') (A") (A') (A') (A") (A') (A")
 The electronic state is 1-A'.
 Alpha  occ. eigenvalues -- -485.32834-485.32834 -63.32059 -63.32059 -57.14786
 Alpha  occ. eigenvalues --  -57.14786 -57.14557 -57.14557 -57.14556 -57.14556
 Alpha  occ. eigenvalues --  -25.27561 -19.65064 -10.64568 -10.64146 -10.56369
 Alpha  occ. eigenvalues --  -10.56286 -10.56126 -10.56031 -10.55581  -9.00773
 Alpha  occ. eigenvalues --   -9.00773  -6.83524  -6.83524  -6.82572  -6.82572
 Alpha  occ. eigenvalues --   -6.82570  -6.82570  -2.86702  -2.86702  -2.86329
 Alpha  occ. eigenvalues --   -2.86329  -2.86328  -2.86328  -2.85502  -2.85502
 Alpha  occ. eigenvalues --   -2.85502  -2.85502  -1.39284  -1.19909  -0.98338
 Alpha  occ. eigenvalues --   -0.86811  -0.86769  -0.86701  -0.86204  -0.73171
 Alpha  occ. eigenvalues --   -0.72254  -0.71658  -0.64474  -0.60040  -0.59107
 Alpha  occ. eigenvalues --   -0.59010  -0.58575  -0.54263  -0.52824  -0.51096
 Alpha  occ. eigenvalues --   -0.49820  -0.49004  -0.48261  -0.48118  -0.45027
 Alpha  occ. eigenvalues --   -0.44346  -0.42146  -0.35556  -0.35339  -0.35301
 Alpha  occ. eigenvalues --   -0.35296  -0.35135  -0.32651  -0.31674
 Alpha virt. eigenvalues --   -0.01562  -0.00471   0.00086   0.00197   0.00988
 Alpha virt. eigenvalues --    0.00993   0.01533   0.01951   0.02744   0.03004
 Alpha virt. eigenvalues --    0.03454   0.04368   0.05736   0.06106   0.06384
 Alpha virt. eigenvalues --    0.06537   0.06887   0.07138   0.07768   0.08491
 Alpha virt. eigenvalues --    0.09248   0.09293   0.10777   0.10864   0.10905
 Alpha virt. eigenvalues --    0.11252   0.12154   0.12760   0.12776   0.12856
 Alpha virt. eigenvalues --    0.13182   0.13258   0.14052   0.15108   0.15193
 Alpha virt. eigenvalues --    0.15956   0.15995   0.16590   0.16741   0.16926
 Alpha virt. eigenvalues --    0.17546   0.17889   0.17999   0.19704   0.20399
 Alpha virt. eigenvalues --    0.20497   0.21282   0.21978   0.22432   0.23647
 Alpha virt. eigenvalues --    0.25373   0.25415   0.25442   0.27708   0.29466
 Alpha virt. eigenvalues --    0.30734   0.31211   0.31371   0.32213   0.32569
 Alpha virt. eigenvalues --    0.32792   0.36917   0.37899   0.37987   0.39553
 Alpha virt. eigenvalues --    0.39837   0.42333   0.42430   0.42849   0.43120
 Alpha virt. eigenvalues --    0.45299   0.47067   0.47564   0.48350   0.49009
 Alpha virt. eigenvalues --    0.49417   0.51763   0.52426   0.52626   0.52823
 Alpha virt. eigenvalues --    0.55087   0.56490   0.56927   0.57483   0.58421
 Alpha virt. eigenvalues --    0.58961   0.59454   0.59655   0.59767   0.60238
 Alpha virt. eigenvalues --    0.62628   0.62821   0.63005   0.64188   0.65441
 Alpha virt. eigenvalues --    0.66882   0.67524   0.68328   0.69306   0.70471
 Alpha virt. eigenvalues --    0.70657   0.71002   0.71008   0.72325   0.73561
 Alpha virt. eigenvalues --    0.74566   0.76264   0.77187   0.77525   0.80023
 Alpha virt. eigenvalues --    0.81272   0.83522   0.83711   0.84078   0.87743
 Alpha virt. eigenvalues --    0.88583   0.88926   0.91226   0.93682   0.96476
 Alpha virt. eigenvalues --    0.96967   0.97357   1.00419   1.04317   1.04366
 Alpha virt. eigenvalues --    1.05260   1.05408   1.06254   1.07976   1.08231
 Alpha virt. eigenvalues --    1.11939   1.16619   1.16680   1.17878   1.23413
 Alpha virt. eigenvalues --    1.25284   1.26180   1.32172   1.33396   1.41375
 Alpha virt. eigenvalues --    1.43909   1.46538   1.47522   1.47825   1.49056
 Alpha virt. eigenvalues --    1.49155   1.51901   1.54953   1.55329   1.56134
 Alpha virt. eigenvalues --    1.59895   1.60641   1.60883   1.61345   1.63091
 Alpha virt. eigenvalues --    1.68032   1.68066   1.68410   1.70035   1.71087
 Alpha virt. eigenvalues --    1.76614   1.76811   1.77699   1.79248   1.79459
 Alpha virt. eigenvalues --    1.85856   1.86736   1.88795   1.91849   1.94488
 Alpha virt. eigenvalues --    1.95080   1.96151   1.97521   1.98677   2.00334
 Alpha virt. eigenvalues --    2.03029   2.03930   2.05088   2.06600   2.07052
 Alpha virt. eigenvalues --    2.07202   2.07935   2.09903   2.10464   2.10492
 Alpha virt. eigenvalues --    2.12577   2.15157   2.16475   2.25276   2.30245
 Alpha virt. eigenvalues --    2.30602   2.35169   2.43784   2.44413   2.47590
 Alpha virt. eigenvalues --    2.48322   2.51248   2.52475   2.52596   2.62703
 Alpha virt. eigenvalues --    2.63212   2.65375   2.66822   2.68982   2.72132
 Alpha virt. eigenvalues --    2.72607   2.74182   2.74573   2.76092   2.77236
 Alpha virt. eigenvalues --    2.78763   2.84653   2.85289   2.86477   2.89177
 Alpha virt. eigenvalues --    2.94136   2.94424   2.94497   2.98003   2.99379
 Alpha virt. eigenvalues --    3.14328   3.18790   3.26869   3.38998   3.39382
 Alpha virt. eigenvalues --    3.43408   3.48763   3.52984   3.56394   3.56836
 Alpha virt. eigenvalues --    3.66847   3.73350   3.79282   3.86178   3.94187
 Alpha virt. eigenvalues --    4.02583   4.05919   4.05994   4.08878   4.16089
 Alpha virt. eigenvalues --    4.19675   4.21433   4.29099   4.29436   4.30001
 Alpha virt. eigenvalues --    4.30154   4.33449   4.35566   4.36341   4.37235
 Alpha virt. eigenvalues --    4.51915   4.55174   4.85705   4.94926   5.10667
 Alpha virt. eigenvalues --    5.22387   5.80456   6.57683   6.59535   6.84844
 Alpha virt. eigenvalues --    6.87753   6.91788   7.63300   7.65032   7.66312
 Alpha virt. eigenvalues --    7.67019   7.68047   7.69440  23.69472  23.99598
 Alpha virt. eigenvalues --   24.02094  24.05106  24.15688  24.17009  24.27419
 Alpha virt. eigenvalues --   48.37548  48.39972  50.05281  66.95883 290.77926
 Alpha virt. eigenvalues --  290.79813 290.81242 290.82071 290.85126 290.86557
 Alpha virt. eigenvalues -- 1020.933401020.96506
          Condensed to atoms (all electrons):
               1          2          3          4          5          6
     1  C   11.325053  -1.184339  -1.738072  -0.152297  -1.481486  -0.757142
     2  C   -1.184339  11.537335   1.752462  -0.648380  -0.483124  -5.186432
     3  C   -1.738072   1.752462   6.352053   0.458197  -0.235035  -0.694810
     4  C   -0.152297  -0.648380   0.458197   6.493976   0.416838  -0.519137
     5  C   -1.481486  -0.483124  -0.235035   0.416838   6.168512   1.516505
     6  C   -0.757142  -5.186432  -0.694810  -0.519137   1.516505  11.432374
     7  F    0.525508  -0.246618  -0.047166   0.019341  -0.042276  -0.238529
     8  H   -0.060010   0.451356  -0.064532  -0.013520   0.010863  -0.010063
     9  H   -0.011166  -0.025570   0.392009  -0.090972   0.013233   0.029295
    10  H    0.041620  -0.014397  -0.076947   0.474212  -0.073855  -0.011407
    11  H   -0.007815   0.032593   0.012988  -0.092091   0.388885  -0.028482
    12  H   -0.060430  -0.010620   0.009838  -0.011856  -0.061452   0.447700
    13  O    0.062170  -0.021342  -0.001963   0.000337  -0.001559  -0.019666
    14  C    0.008614  -0.003258  -0.000616   0.000712  -0.000493  -0.001929
    15  H   -0.001089   0.000239   0.000057  -0.000052   0.000047   0.000174
    16  H   -0.001089   0.000239   0.000057  -0.000052   0.000047   0.000174
    17  H   -0.074383   0.024537   0.013886  -0.020793   0.011336   0.015710
    18  Br   0.193304  -0.051190  -0.039135   0.027918  -0.035488  -0.042628
    19  H   -0.074383   0.024537   0.013886  -0.020793   0.011336   0.015710
    20  Br   0.193304  -0.051190  -0.039135   0.027918  -0.035488  -0.042628
               7          8          9         10         11         12
     1  C    0.525508  -0.060010  -0.011166   0.041620  -0.007815  -0.060430
     2  C   -0.246618   0.451356  -0.025570  -0.014397   0.032593  -0.010620
     3  C   -0.047166  -0.064532   0.392009  -0.076947   0.012988   0.009838
     4  C    0.019341  -0.013520  -0.090972   0.474212  -0.092091  -0.011856
     5  C   -0.042276   0.010863   0.013233  -0.073855   0.388885  -0.061452
     6  C   -0.238529  -0.010063   0.029295  -0.011407  -0.028482   0.447700
     7  F    9.168579  -0.006785  -0.002174   0.001249  -0.002216  -0.006728
     8  H   -0.006785   0.484512  -0.004132   0.000448   0.001315   0.000480
     9  H   -0.002174  -0.004132   0.487398  -0.012263   0.002313   0.001281
    10  H    0.001249   0.000448  -0.012263   0.501351  -0.011918   0.000404
    11  H   -0.002216   0.001315   0.002313  -0.011918   0.486213  -0.003428
    12  H   -0.006728   0.000480   0.001281   0.000404  -0.003428   0.483015
    13  O    0.006991   0.001151  -0.000038   0.000022  -0.000039   0.001185
    14  C    0.001602  -0.000321  -0.000069   0.000021  -0.000070  -0.000329
    15  H   -0.000231  -0.000039   0.000005  -0.000002   0.000005  -0.000039
    16  H   -0.000231  -0.000039   0.000005  -0.000002   0.000005  -0.000039
    17  H   -0.034574   0.005014   0.002748  -0.001399   0.002776   0.005119
    18  Br   0.007951  -0.002779  -0.003362   0.001829  -0.003353  -0.002918
    19  H   -0.034574   0.005014   0.002748  -0.001399   0.002776   0.005119
    20  Br   0.007951  -0.002779  -0.003362   0.001829  -0.003353  -0.002918
              13         14         15         16         17         18
     1  C    0.062170   0.008614  -0.001089  -0.001089  -0.074383   0.193304
     2  C   -0.021342  -0.003258   0.000239   0.000239   0.024537  -0.051190
     3  C   -0.001963  -0.000616   0.000057   0.000057   0.013886  -0.039135
     4  C    0.000337   0.000712  -0.000052  -0.000052  -0.020793   0.027918
     5  C   -0.001559  -0.000493   0.000047   0.000047   0.011336  -0.035488
     6  C   -0.019666  -0.001929   0.000174   0.000174   0.015710  -0.042628
     7  F    0.006991   0.001602  -0.000231  -0.000231  -0.034574   0.007951
     8  H    0.001151  -0.000321  -0.000039  -0.000039   0.005014  -0.002779
     9  H   -0.000038  -0.000069   0.000005   0.000005   0.002748  -0.003362
    10  H    0.000022   0.000021  -0.000002  -0.000002  -0.001399   0.001829
    11  H   -0.000039  -0.000070   0.000005   0.000005   0.002776  -0.003353
    12  H    0.001185  -0.000329  -0.000039  -0.000039   0.005119  -0.002918
    13  O    8.144762   0.231994  -0.090616  -0.090616   0.009571  -0.005549
    14  C    0.231994   4.957691   0.395203   0.395203  -0.006896   0.002927
    15  H   -0.090616   0.395203   0.699410  -0.120657   0.001507   0.000303
    16  H   -0.090616   0.395203  -0.120657   0.699410   0.000401  -0.000165
    17  H    0.009571  -0.006896   0.001507   0.000401   0.643413   0.233376
    18  Br  -0.005549   0.002927   0.000303  -0.000165   0.233376  34.856172
    19  H    0.009571  -0.006896   0.000401   0.001507   0.009276  -0.007943
    20  Br  -0.005549   0.002927  -0.000165   0.000303  -0.007943   0.003965
              19         20
     1  C   -0.074383   0.193304
     2  C    0.024537  -0.051190
     3  C    0.013886  -0.039135
     4  C   -0.020793   0.027918
     5  C    0.011336  -0.035488
     6  C    0.015710  -0.042628
     7  F   -0.034574   0.007951
     8  H    0.005014  -0.002779
     9  H    0.002748  -0.003362
    10  H   -0.001399   0.001829
    11  H    0.002776  -0.003353
    12  H    0.005119  -0.002918
    13  O    0.009571  -0.005549
    14  C   -0.006896   0.002927
    15  H    0.000401  -0.000165
    16  H    0.001507   0.000303
    17  H    0.009276  -0.007943
    18  Br  -0.007943   0.003965
    19  H    0.643413   0.233376
    20  Br   0.233376  34.856172
 Mulliken charges:
               1
     1  C   -0.745872
     2  C    0.103163
     3  C   -0.068021
     4  C   -0.349507
     5  C   -0.087347
     6  C    0.095210
     7  F   -0.077070
     8  H    0.204847
     9  H    0.222073
    10  H    0.180603
    11  H    0.222894
    12  H    0.206616
    13  O   -0.230817
    14  C    0.023981
    15  H    0.115539
    16  H    0.115539
    17  H    0.167319
    18  Br  -0.133234
    19  H    0.167319
    20  Br  -0.133234
 Sum of Mulliken charges =  -0.00000
 Mulliken charges with hydrogens summed into heavy atoms:
               1
     1  C   -0.745872
     2  C    0.308010
     3  C    0.154052
     4  C   -0.168904
     5  C    0.135548
     6  C    0.301826
     7  F   -0.077070
    13  O   -0.230817
    14  C    0.255058
    18  Br   0.034084
    20  Br   0.034084
 Electronic spatial extent (au):  <R**2>=           5358.8693
 Charge=              0.0000 electrons
 Dipole moment (field-independent basis, Debye):
    X=              0.0009    Y=              0.8458    Z=             -0.0000  Tot=              0.8458
 Quadrupole moment (field-independent basis, Debye-Ang):
   XX=            -85.8753   YY=            -64.4498   ZZ=           -105.2566
   XY=              0.1161   XZ=              0.0000   YZ=              0.0000
 Traceless Quadrupole moment (field-independent basis, Debye-Ang):
   XX=             -0.6814   YY=             20.7441   ZZ=            -20.0627
   XY=              0.1161   XZ=              0.0000   YZ=              0.0000
 Octapole moment (field-independent basis, Debye-Ang**2):
  XXX=             -0.2164  YYY=            117.6556  ZZZ=              0.0000  XYY=             -0.1417
  XXY=              3.8049  XXZ=             -0.0000  XZZ=             -0.1475  YZZ=             21.6817
  YYZ=             -0.0000  XYZ=              0.0000
 Hexadecapole moment (field-independent basis, Debye-Ang**3):
 XXXX=           -321.4407 YYYY=          -1931.7974 ZZZZ=          -2822.7341 XXXY=              0.9149
 XXXZ=             -0.0000 YYYX=              1.8445 YYYZ=             -0.0000 ZZZX=              0.0000
 ZZZY=             -0.0000 XXYY=           -462.7528 XXZZ=           -559.9602 YYZZ=           -959.1627
 XXYZ=              0.0000 YYXZ=              0.0000 ZZXY=              0.5083
 N-N= 1.075929372398D+03 E-N=-1.550675034170D+04  KE= 5.587833785869D+03
 Symmetry A'   KE= 2.996655330042D+03
 Symmetry A"   KE= 2.591178455827D+03
 1\1\GINC-R820\POpt\RM062X\6-311++G(d,p)\C7H9Br2F1O1\ZJXU\27-Mar-2024\1
 \\# m062x 6-311++G(d,p) opt=z-matrix\\test\\0,1\C\C,1,d1\C,2,d2,1,120.
 \C,3,d3,2,120.,1,0.,0\C,4,d4,3,120.,2,0.,0\C,5,d5,4,120.,3,0.,0\F,1,d6
 ,2,120.,3,180.,0\H,2,d7,3,120.,4,180.,0\H,3,d8,4,120.,5,180.,0\H,4,d9,
 5,120.,6,180.,0\H,5,d10,6,120.,1,180.,0\H,6,d11,1,120.,2,180.,0\O,7,d1
 2,1,179.9,3,180.,0\C,13,d13,1,179.9,2,180.,0\H,14,d14,1,120.,2,90.,0\H
 ,14,d15,1,120.,2,-90.,0\H,7,d16,1,100.,2,90.,0\Br,17,d17,7,160.,1,0.,0
 \H,7,d18,1,100.,2,-90.,0\Br,19,d19,7,160.,1,0.,0\\d1=1.37774904\d2=1.3
 8258494\d3=1.38665138\d4=1.39464923\d5=1.3978983\d6=1.35609744\d7=1.08
 387041\d8=1.08265253\d9=1.0830119\d10=1.08256141\d11=1.08312506\d12=2.
 73033563\d13=1.19988627\d14=1.10322607\d15=1.10322607\d16=2.09889809\d
 17=1.42448301\d18=2.09889809\d19=1.42448301\\Version=ES64L-G16RevB.01\
 State=1-A'\HF=-5595.4720078\RMSD=3.045e-09\RMSF=3.764e-03\Dipole=-0.28
 80036,0.,-0.1666959\Quadrupole=11.3656722,-14.9161443,3.5504721,0.,6.9
 407636,0.\PG=CS [SG(C7H5F1O1),X(H4Br2)]\\@


 NOBODY LOSES ALL THE TIME
 I HAD AN UNCLE NAMED
 SOL WHO WAS A BORN FAILURE AND
 NEARLY EVERYBODY SAID HE SHOULD HAVE GONE
 INTO VAUDEVILLE PERHAPS BECAUSE MY UNCLE SOL COULD
 SING MCCANN HE WAS A DIVER ON XMAS EVE LIKE HELL ITSELF WHICH
 MAY OR MAY NOT ACCOUNT FOR THE FACT THAT MY UNCLE
 SOL INDULGED IN THAT POSSIBLY MOST INEXCUSABLE
 OF ALL TO USE A HIGHFALOOTIN PHRASE
 LUXURIES THAT IS OR TO
 WIT FARMING AND BE
 IT NEEDLESSLY
 ADDED
 MY UNCLE SOL'S FARM     
 FAILED BECAUSE THE CHICKENS
 ATE THE VEGETABLES SO
 MY UNCLE SOL HAD A
 CHICKEN FARM TILL THE
 SKUNKS ATE THE CHICKENS WHEN 
 MY UNCLE SOL
 HAD A SKUNK FARM BUT
 THE SKUNKS CAUGHT COLD AND
 DIED AND SO
 MY UNCLE SOL IMITATED THE
 SKUNKS IN A SUBTLE MANNER
 OR BY DROWNING HIMSELF IN THE WATERTANK
 BUT SOMEBODY WHO'D GIVEN MY UNCLE SOL A VICTOR     
 VICTROLA AND RECORDS WHILE HE LIVED PRESENTED TO
 HIM UPON THE AUSPICIOUS OCCASION OF HIS DECEASE A
 SCRUMPTIOUS NOT TO MENTION SPLENDIFEROUS FUNERAL WITH
 TALL BOYS IN BLACK GLOVES AND FLOWERS AND EVERYTHING AND
 I REMEMBER WE ALL CRIED LIKE THE MISSOURI
 WHEN MY UNCLE SOL'S COFFIN LURCHED BECAUSE     
 SOMEBODY PRESSED A BUTTON
 (AND DOWN WENT
 MY UNCLE
 SOL
 AND STARTED A WORM FARM)
           E. E. CUMMINGS
 Job cpu time:       0 days  3 hours 16 minutes  9.9 seconds.
 Elapsed time:       0 days  1 hours 38 minutes  8.4 seconds.
 File lengths (MBytes):  RWF=     91 Int=      0 D2E=      0 Chk=     13 Scr=      1
 Normal termination of Gaussian 16 at Wed Mar 27 15:38:40 2024.
