 Entering Gaussian System, Link 0=g16
 Input=model_H3.gjf
 Output=model_H3.log
 Initial command:
 /home/zjxu/prog/g16/l1.exe "/home/zjxu/zjhan/5_model/HBr/vacuum_new/Gau-33405.inp" -scrdir="/home/zjxu/zjhan/5_model/HBr/vacuum_new/"
 Entering Link 1 = /home/zjxu/prog/g16/l1.exe PID=     33406.
  
 Copyright (c) 1988-2017, Gaussian, Inc.  All Rights Reserved.
  
 This is part of the Gaussian(R) 16 program.  It is based on
 the Gaussian(R) 09 system (copyright 2009, Gaussian, Inc.),
 the Gaussian(R) 03 system (copyright 2003, Gaussian, Inc.),
 the Gaussian(R) 98 system (copyright 1998, Gaussian, Inc.),
 the Gaussian(R) 94 system (copyright 1995, Gaussian, Inc.),
 the Gaussian 92(TM) system (copyright 1992, Gaussian, Inc.),
 the Gaussian 90(TM) system (copyright 1990, Gaussian, Inc.),
 the Gaussian 88(TM) system (copyright 1988, Gaussian, Inc.),
 the Gaussian 86(TM) system (copyright 1986, Carnegie Mellon
 University), and the Gaussian 82(TM) system (copyright 1983,
 Carnegie Mellon University). Gaussian is a federally registered
 trademark of Gaussian, Inc.
  
 This software contains proprietary and confidential information,
 including trade secrets, belonging to Gaussian, Inc.
  
 This software is provided under written license and may be
 used, copied, transmitted, or stored only in accord with that
 written license.
  
 The following legend is applicable only to US Government
 contracts under FAR:
  
                    RESTRICTED RIGHTS LEGEND
  
 Use, reproduction and disclosure by the US Government is
 subject to restrictions as set forth in subparagraphs (a)
 and (c) of the Commercial Computer Software - Restricted
 Rights clause in FAR 52.227-19.
  
 Gaussian, Inc.
 340 Quinnipiac St., Bldg. 40, Wallingford CT 06492
  
  
 ---------------------------------------------------------------
 Warning -- This program may not be used in any manner that
 competes with the business of Gaussian, Inc. or will provide
 assistance to any competitor of Gaussian, Inc.  The licensee
 of this program is prohibited from giving any competitor of
 Gaussian, Inc. access to this program.  By using this program,
 the user acknowledges that Gaussian, Inc. is engaged in the
 business of creating and licensing software in the field of
 computational chemistry and represents and warrants to the
 licensee that it is not a competitor of Gaussian, Inc. and that
 it will not use this program in any manner prohibited above.
 ---------------------------------------------------------------
  

 Cite this work as:
 Gaussian 16, Revision B.01,
 M. J. Frisch, G. W. Trucks, H. B. Schlegel, G. E. Scuseria, 
 M. A. Robb, J. R. Cheeseman, G. Scalmani, V. Barone, 
 G. A. Petersson, H. Nakatsuji, X. Li, M. Caricato, A. V. Marenich, 
 J. Bloino, B. G. Janesko, R. Gomperts, B. Mennucci, H. P. Hratchian, 
 J. V. Ortiz, A. F. Izmaylov, J. L. Sonnenberg, D. Williams-Young, 
 F. Ding, F. Lipparini, F. Egidi, J. Goings, B. Peng, A. Petrone, 
 T. Henderson, D. Ranasinghe, V. G. Zakrzewski, J. Gao, N. Rega, 
 G. Zheng, W. Liang, M. Hada, M. Ehara, K. Toyota, R. Fukuda, 
 J. Hasegawa, M. Ishida, T. Nakajima, Y. Honda, O. Kitao, H. Nakai, 
 T. Vreven, K. Throssell, J. A. Montgomery, Jr., J. E. Peralta, 
 F. Ogliaro, M. J. Bearpark, J. J. Heyd, E. N. Brothers, K. N. Kudin, 
 V. N. Staroverov, T. A. Keith, R. Kobayashi, J. Normand, 
 K. Raghavachari, A. P. Rendell, J. C. Burant, S. S. Iyengar, 
 J. Tomasi, M. Cossi, J. M. Millam, M. Klene, C. Adamo, R. Cammi, 
 J. W. Ochterski, R. L. Martin, K. Morokuma, O. Farkas, 
 J. B. Foresman, and D. J. Fox, Gaussian, Inc., Wallingford CT, 2016.
 
 ******************************************
 Gaussian 16:  ES64L-G16RevB.01 20-Dec-2017
                28-Mar-2024 
 ******************************************
 %mem=2GB
 %nproc=2
 Will use up to    2 processors via shared memory.
 %chk=model_H3
 ----------------------------------
 # m062x 6-311++G(d,p) opt=z-matrix
 ----------------------------------
 1/10=7,18=40,26=3,38=1/1,3;
 2/12=2,17=6,18=5,29=3,40=1/2;
 3/5=4,6=6,7=1111,11=2,25=1,30=1,71=1,74=-55/1,2,3;
 4//1;
 5/5=2,38=5/2;
 6/7=2,8=2,9=2,10=2,28=1/1;
 7/29=1/1,2,3,16;
 1/10=7,18=40,26=3/3(2);
 2/29=3/2;
 99//99;
 2/29=3/2;
 3/5=4,6=6,7=1111,11=2,25=1,30=1,71=1,74=-55/1,2,3;
 4/5=5,16=3,69=1/1;
 5/5=2,38=5/2;
 7//1,2,3,16;
 1/18=40,26=3/3(-5);
 2/29=3/2;
 6/7=2,8=2,9=2,10=2,19=2,28=1/1;
 99/9=1/99;
 ----
 test
 ----
 Symbolic Z-matrix:
 Charge =  0 Multiplicity = 1
 C1
 C2                   1    d1
 C3                   2    d2       1     120. 
 C4                   3    d3       2     120.     1     0.       0
 C5                   4    d4       3     120.     2     0.       0
 C6                   5    d5       4     120.     3     0.       0
 F7                   1    d6       2     120.     3     180.     0
 H8                   2    d7       3     120.     4     180.     0
 H9                   3    d8       4     120.     5     180.     0
 H10                  4    d9       5     120.     6     180.     0
 H11                  5    d10      6     120.     1     180.     0
 H12                  6    d11      1     120.     2     180.     0
 O13                  7    d12      1     179.9    3     180.     0
 C14                  13   d13      1     179.9    2     180.     0
 H15                  14   d14      1     120.     2     90.      0
 H16                  14   d15      1     120.     2    -90.      0
 H17                  7    d16      1     100.     2     90.      0
 Br18                 17   d17      7     160.     1     0.       0
 H19                  7    d18      1     100.     2    -30.      0
 Br20                 19   d19      7     160.     1     0.       0
 H21                  7    d20      1     100.     2    -150.     0
 Br22                 21   d21      7     160.     1     0.       0
       Variables:
  d1                    1.3                      
  d2                    1.3                      
  d3                    1.3                      
  d4                    1.3                      
  d5                    1.3                      
  d6                    1.4                      
  d7                    1.                       
  d8                    1.                       
  d9                    1.                       
  d10                   1.                       
  d11                   1.                       
  d12                   2.8                      
  d13                   1.2                      
  d14                   1.                       
  d15                   1.                       
  d16                   2.3                      
  d17                   1.4                      
  d18                   2.3                      
  d19                   1.4                      
  d20                   2.3                      
  d21                   1.4                      
 

 GradGradGradGradGradGradGradGradGradGradGradGradGradGradGradGradGradGrad
 Berny optimization.
 Initialization pass.
                       ----------------------------
                       !    Initial Parameters    !
                       ! (Angstroms and Degrees)  !
 ----------------------                            ----------------------
 !      Name          Value   Derivative information (Atomic Units)     !
 ------------------------------------------------------------------------
 !       d1          1.3      estimate D2E/DX2                          !
 !       d2          1.3      estimate D2E/DX2                          !
 !       d3          1.3      estimate D2E/DX2                          !
 !       d4          1.3      estimate D2E/DX2                          !
 !       d5          1.3      estimate D2E/DX2                          !
 !       d6          1.4      estimate D2E/DX2                          !
 !       d7          1.0      estimate D2E/DX2                          !
 !       d8          1.0      estimate D2E/DX2                          !
 !       d9          1.0      estimate D2E/DX2                          !
 !       d10         1.0      estimate D2E/DX2                          !
 !       d11         1.0      estimate D2E/DX2                          !
 !       d12         2.8      estimate D2E/DX2                          !
 !       d13         1.2      estimate D2E/DX2                          !
 !       d14         1.0      estimate D2E/DX2                          !
 !       d15         1.0      estimate D2E/DX2                          !
 !       d16         2.3      estimate D2E/DX2                          !
 !       d17         1.4      estimate D2E/DX2                          !
 !       d18         2.3      estimate D2E/DX2                          !
 !       d19         1.4      estimate D2E/DX2                          !
 !       d20         2.3      estimate D2E/DX2                          !
 !       d21         1.4      estimate D2E/DX2                          !
 ------------------------------------------------------------------------
 Trust Radius=3.00D-01 FncErr=1.00D-07 GrdErr=1.00D-06 EigMax=2.50D+02 EigMin=1.00D-04
 Number of steps in this run=     31 maximum allowed number of steps=    100.
 GradGradGradGradGradGradGradGradGradGradGradGradGradGradGradGradGradGrad

 ---------------------------------------------------------------------------------------------------
                            Z-MATRIX (ANGSTROMS AND DEGREES)
   CD    Cent   Atom    N1       Length/X        N2       Alpha/Y        N3        Beta/Z          J
 ---------------------------------------------------------------------------------------------------
      1      1  C 
      2      2  C        1   1.300000(     1)
      3      3  C        2   1.300000(     2)      1  120.000(    22)
      4      4  C        3   1.300000(     3)      2  120.000(    23)      1    0.000(    42)      0
      5      5  C        4   1.300000(     4)      3  120.000(    24)      2    0.000(    43)      0
      6      6  C        5   1.300000(     5)      4  120.000(    25)      3    0.000(    44)      0
      7      7  F        1   1.400000(     6)      2  120.000(    26)      3  180.000(    45)      0
      8      8  H        2   1.000000(     7)      3  120.000(    27)      4  180.000(    46)      0
      9      9  H        3   1.000000(     8)      4  120.000(    28)      5  180.000(    47)      0
     10     10  H        4   1.000000(     9)      5  120.000(    29)      6  180.000(    48)      0
     11     11  H        5   1.000000(    10)      6  120.000(    30)      1  180.000(    49)      0
     12     12  H        6   1.000000(    11)      1  120.000(    31)      2  180.000(    50)      0
     13     13  O        7   2.800000(    12)      1  179.900(    32)      3  180.000(    51)      0
     14     14  C       13   1.200000(    13)      1  179.900(    33)      2  180.000(    52)      0
     15     15  H       14   1.000000(    14)      1  120.000(    34)      2   90.000(    53)      0
     16     16  H       14   1.000000(    15)      1  120.000(    35)      2  -90.000(    54)      0
     17     17  H        7   2.300000(    16)      1  100.000(    36)      2   90.000(    55)      0
     18     18  Br      17   1.400000(    17)      7  160.000(    37)      1    0.000(    56)      0
     19     19  H        7   2.300000(    18)      1  100.000(    38)      2  -30.000(    57)      0
     20     20  Br      19   1.400000(    19)      7  160.000(    39)      1    0.000(    58)      0
     21     21  H        7   2.300000(    20)      1  100.000(    40)      2 -150.000(    59)      0
     22     22  Br      21   1.400000(    21)      7  160.000(    41)      1    0.000(    60)      0
 ---------------------------------------------------------------------------------------------------
                         Z-Matrix orientation:                         
 ---------------------------------------------------------------------
 Center     Atomic      Atomic             Coordinates (Angstroms)
 Number     Number       Type             X           Y           Z
 ---------------------------------------------------------------------
      1          6           0        0.000000    0.000000    0.000000
      2          6           0        0.000000    0.000000    1.300000
      3          6           0        1.125833    0.000000    1.950000
      4          6           0        2.251666    0.000000    1.300000
      5          6           0        2.251666    0.000000   -0.000000
      6          6           0        1.125833    0.000000   -0.650000
      7          9           0       -1.212436   -0.000000   -0.700000
      8          1           0       -0.866025   -0.000000    1.800000
      9          1           0        1.125833   -0.000000    2.950000
     10          1           0        3.117691   -0.000000    1.800000
     11          1           0        3.117691   -0.000000   -0.500000
     12          1           0        1.125833   -0.000000   -1.650000
     13          8           0       -3.634860   -0.000000   -2.104230
     14          6           0       -4.672340   -0.000000   -2.707251
     15          1           0       -5.104965    0.866025   -2.957922
     16          1           0       -5.104965   -0.866025   -2.957922
     17          1           0       -1.558318    2.265058   -0.899695
     18         35           0       -1.347781    3.643789   -0.778142
     19          1           0       -2.539117   -1.132529    0.799098
     20         35           0       -2.925588   -1.821894    1.954700
     21          1           0       -0.577519   -1.132529   -2.598489
     22         35           0        0.230026   -1.821894   -3.510983
 ---------------------------------------------------------------------
                    Distance matrix (angstroms):
                    1          2          3          4          5
     1  C    0.000000
     2  C    1.300000   0.000000
     3  C    2.251666   1.300000   0.000000
     4  C    2.600000   2.251666   1.300000   0.000000
     5  C    2.251666   2.600000   2.251666   1.300000   0.000000
     6  C    1.300000   2.251666   2.600000   2.251666   1.300000
     7  F    1.400000   2.338803   3.534119   4.000000   3.534119
     8  H    1.997498   1.000000   1.997498   3.157531   3.600000
     9  H    3.157531   1.997498   1.000000   1.997498   3.157531
    10  H    3.600000   3.157531   1.997498   1.000000   1.997498
    11  H    3.157531   3.600000   3.157531   1.997498   1.000000
    12  H    1.997498   3.157531   3.600000   3.157531   1.997498
    13  O    4.199999   4.980059   6.253077   6.799997   6.251317
    14  C    5.399997   6.155390   7.436988   7.999995   7.434452
    15  H    5.963218   6.703772   7.978755   8.543999   7.976172
    16  H    5.963218   6.703772   7.978755   8.543999   7.976172
    17  H    2.892800   3.521009   4.522822   4.948245   4.522822
    18  Br   3.962223   4.405949   5.180610   5.527376   5.180610
    19  H    2.892800   2.825003   4.004879   4.948245   4.987262
    20  Br   3.962223   3.508133   4.442221   5.527376   5.826157
    21  H    2.892800   4.100532   4.987262   4.948245   4.004879
    22  Br   3.962223   5.149541   5.826157   5.527376   4.442221
                    6          7          8          9         10
     6  C    0.000000
     7  F    2.338803   0.000000
     8  H    3.157531   2.523886   0.000000
     9  H    3.600000   4.334743   2.300000   0.000000
    10  H    3.157531   5.000000   3.983717   2.300000   0.000000
    11  H    1.997498   4.334743   4.600000   3.983717   2.300000
    12  H    1.000000   2.523886   3.983717   4.600000   3.983717
    13  O    4.977849   2.800000   4.786382   6.943301   7.799997
    14  C    6.152324   3.999999   5.899436   8.100821   8.999995
    15  H    6.700697   4.582575   6.430896   8.629970   9.539387
    16  H    6.700697   4.582575   6.430896   8.629970   9.539387
    17  H    3.521009   2.300000   3.591394   5.211076   5.855246
    18  Br   4.405949   3.647139   4.489554   5.770182   6.313830
    19  H    4.100532   2.300000   2.254698   4.397824   5.855246
    20  Br   5.149541   3.647139   2.754093   4.552354   6.313830
    21  H    2.825003   2.300000   4.551105   5.913523   5.855246
    22  Br   3.508133   3.647139   5.720767   6.772450   6.313830
                   11         12         13         14         15
    11  H    0.000000
    12  H    2.300000   0.000000
    13  O    6.940497   4.782313   0.000000
    14  C    8.096700   5.893776   1.200000   0.000000
    15  H    8.625744   6.425224   1.907878   1.000000   0.000000
    16  H    8.625744   6.425224   1.907878   1.000000   1.732051
    17  H    5.211076   3.591394   3.300517   4.253807   4.332700
    18  Br   5.770182   4.489554   4.501826   5.296353   5.155952
    19  H    5.913523   4.551105   3.303421   4.257669   4.969204
    20  Br   6.772450   5.720767   4.505250   5.301342   6.009031
    21  H    4.397824   2.254698   3.297612   4.249942   4.961973
    22  Br   4.552354   2.754093   4.498399   5.291359   5.999409
                   16         17         18         19         20
    16  H    0.000000
    17  H    5.159329   0.000000
    18  Br   6.261493   1.400000   0.000000
    19  H    4.557389   3.923195   5.169156   0.000000
    20  Br   5.458683   5.169156   6.311227   1.400000   0.000000
    21  H    4.549503   3.923195   5.169156   3.923195   5.169156
    22  Br   5.448090   5.169156   6.311227   5.169156   6.311227
                   21         22
    21  H    0.000000
    22  Br   1.400000   0.000000
 Stoichiometry    C7H10Br3FO
 Framework group  C1[X(C7H10Br3FO)]
 Deg. of freedom    60
 Full point group                 C1      NOp   1
 Largest Abelian subgroup         C1      NOp   1
 Largest concise Abelian subgroup C1      NOp   1
                         Standard orientation:                         
 ---------------------------------------------------------------------
 Center     Atomic      Atomic             Coordinates (Angstroms)
 Number     Number       Type             X           Y           Z
 ---------------------------------------------------------------------
      1          6           0       -0.002995    0.000000    1.170156
      2          6           0       -1.130146    0.000000    1.817869
      3          6           0       -1.132786    0.000000    3.117866
      4          6           0       -0.008275    0.000000    3.770151
      5          6           0        1.118876    0.000000    3.122439
      6          6           0        1.121516    0.000000    1.822441
      7          9           0       -0.000152    0.000000   -0.229841
      8          1           0       -1.995154    0.000000    1.316111
      9          1           0       -1.999825    0.000000    3.616106
     10          1           0       -0.010306    0.000000    4.770149
     11          1           0        1.983884    0.000000    3.624196
     12          1           0        1.988555    0.000000    1.324201
     13          8           0        0.010421    0.000000   -3.029821
     14          6           0        0.016349    0.000000   -4.229806
     15          1           0        0.018140    0.866025   -4.729803
     16          1           0        0.018140   -0.866025   -4.729803
     17          1           0        0.000659    2.265058   -0.629231
     18         35           0        0.000165    3.643789   -0.386124
     19          1           0       -1.960935   -1.132529   -0.633215
     20         35           0       -3.155442   -1.821894   -0.392532
     21          1           0        1.962253   -1.132529   -0.625247
     22         35           0        3.155772   -1.821894   -0.379716
 ---------------------------------------------------------------------
 Rotational constants (GHZ):           0.1960650           0.1904981           0.1561111
 Standard basis: 6-311++G(d,p) (5D, 7F)
 There are   430 symmetry adapted cartesian basis functions of A   symmetry.
 There are   412 symmetry adapted basis functions of A   symmetry.
   412 basis functions,   696 primitive gaussians,   430 cartesian basis functions
    87 alpha electrons       87 beta electrons
       nuclear repulsion energy      1603.3030283073 Hartrees.
 NAtoms=   22 NActive=   22 NUniq=   22 SFac= 1.00D+00 NAtFMM=   60 NAOKFM=F Big=F
 Integral buffers will be    131072 words long.
 Raffenetti 2 integral format.
 Two-electron integral symmetry is turned on.
 One-electron integrals computed using PRISM.
 NBasis=   412 RedAO= T EigKep=  3.14D-06  NBF=   412
 NBsUse=   411 1.00D-06 EigRej=  3.76D-07 NBFU=   411
 ExpMin= 3.50D-02 ExpMax= 4.40D+05 ExpMxC= 1.51D+04 IAcc=3 IRadAn=         5 AccDes= 0.00D+00
 Harris functional with IExCor= 1009 and IRadAn=       5 diagonalized for initial guess.
 HarFok:  IExCor= 1009 AccDes= 0.00D+00 IRadAn=         5 IDoV= 1 UseB2=F ITyADJ=14
 ICtDFT=  3500011 ScaDFX=  1.000000  1.000000  1.000000  1.000000
 FoFCou: FMM=F IPFlag=           0 FMFlag=      100000 FMFlg1=           0
         NFxFlg=           0 DoJE=T BraDBF=F KetDBF=T FulRan=T
         wScrn=  0.000000 ICntrl=       500 IOpCl=  0 I1Cent=   200000004 NGrid=           0
         NMat0=    1 NMatS0=      1 NMatT0=    0 NMatD0=    1 NMtDS0=    0 NMtDT0=    0
 Petite list used in FoFCou.
 Requested convergence on RMS density matrix=1.00D-08 within 128 cycles.
 Requested convergence on MAX density matrix=1.00D-06.
 Requested convergence on             energy=1.00D-06.
 No special actions if energy rises.
 SCF Done:  E(RM062X) =  -8170.14364620     A.U. after   14 cycles
            NFock= 14  Conv=0.62D-08     -V/T= 2.0010

 **********************************************************************

            Population analysis using the SCF Density.

 **********************************************************************

 Orbital symmetries:
       Occupied  (A) (A) (A) (A) (A) (A) (A) (A) (A) (A) (A) (A)
                 (A) (A) (A) (A) (A) (A) (A) (A) (A) (A) (A) (A)
                 (A) (A) (A) (A) (A) (A) (A) (A) (A) (A) (A) (A)
                 (A) (A) (A) (A) (A) (A) (A) (A) (A) (A) (A) (A)
                 (A) (A) (A) (A) (A) (A) (A) (A) (A) (A) (A) (A)
                 (A) (A) (A) (A) (A) (A) (A) (A) (A) (A) (A) (A)
                 (A) (A) (A) (A) (A) (A) (A) (A) (A) (A) (A) (A)
                 (A) (A) (A)
       Virtual   (A) (A) (A) (A) (A) (A) (A) (A) (A) (A) (A) (A)
                 (A) (A) (A) (A) (A) (A) (A) (A) (A) (A) (A) (A)
                 (A) (A) (A) (A) (A) (A) (A) (A) (A) (A) (A) (A)
                 (A) (A) (A) (A) (A) (A) (A) (A) (A) (A) (A) (A)
                 (A) (A) (A) (A) (A) (A) (A) (A) (A) (A) (A) (A)
                 (A) (A) (A) (A) (A) (A) (A) (A) (A) (A) (A) (A)
                 (A) (A) (A) (A) (A) (A) (A) (A) (A) (A) (A) (A)
                 (A) (A) (A) (A) (A) (A) (A) (A) (A) (A) (A) (A)
                 (A) (A) (A) (A) (A) (A) (A) (A) (A) (A) (A) (A)
                 (A) (A) (A) (A) (A) (A) (A) (A) (A) (A) (A) (A)
                 (A) (A) (A) (A) (A) (A) (A) (A) (A) (A) (A) (A)
                 (A) (A) (A) (A) (A) (A) (A) (A) (A) (A) (A) (A)
                 (A) (A) (A) (A) (A) (A) (A) (A) (A) (A) (A) (A)
                 (A) (A) (A) (A) (A) (A) (A) (A) (A) (A) (A) (A)
                 (A) (A) (A) (A) (A) (A) (A) (A) (A) (A) (A) (A)
                 (A) (A) (A) (A) (A) (A) (A) (A) (A) (A) (A) (A)
                 (A) (A) (A) (A) (A) (A) (A) (A) (A) (A) (A) (A)
                 (A) (A) (A) (A) (A) (A) (A) (A) (A) (A) (A) (A)
                 (A) (A) (A) (A) (A) (A) (A) (A) (A) (A) (A) (A)
                 (A) (A) (A) (A) (A) (A) (A) (A) (A) (A) (A) (A)
                 (A) (A) (A) (A) (A) (A) (A) (A) (A) (A) (A) (A)
                 (A) (A) (A) (A) (A) (A) (A) (A) (A) (A) (A) (A)
                 (A) (A) (A) (A) (A) (A) (A) (A) (A) (A) (A) (A)
                 (A) (A) (A) (A) (A) (A) (A) (A) (A) (A) (A) (A)
                 (A) (A) (A) (A) (A) (A) (A) (A) (A) (A) (A) (A)
                 (A) (A) (A) (A) (A) (A) (A) (A) (A) (A) (A) (A)
                 (A) (A) (A) (A) (A) (A) (A) (A) (A) (A) (A) (A)
 The electronic state is 1-A.
 Alpha  occ. eigenvalues -- -485.33843-485.33843-485.33305 -63.33090 -63.33090
 Alpha  occ. eigenvalues --  -63.32546 -57.15814 -57.15814 -57.15586 -57.15586
 Alpha  occ. eigenvalues --  -57.15583 -57.15583 -57.15271 -57.15042 -57.15042
 Alpha  occ. eigenvalues --  -25.26912 -19.64889 -10.62754 -10.62117 -10.53074
 Alpha  occ. eigenvalues --  -10.53071 -10.52862 -10.52850 -10.52181  -9.01827
 Alpha  occ. eigenvalues --   -9.01827  -9.01277  -6.84589  -6.84589  -6.84037
 Alpha  occ. eigenvalues --   -6.83626  -6.83626  -6.83618  -6.83618  -6.83072
 Alpha  occ. eigenvalues --   -6.83072  -2.87772  -2.87772  -2.87389  -2.87389
 Alpha  occ. eigenvalues --   -2.87382  -2.87382  -2.87220  -2.86834  -2.86834
 Alpha  occ. eigenvalues --   -2.86551  -2.86551  -2.86550  -2.86550  -2.86002
 Alpha  occ. eigenvalues --   -2.86002  -1.37429  -1.19984  -1.03835  -0.90136
 Alpha  occ. eigenvalues --   -0.89271  -0.88234  -0.88191  -0.87590  -0.76394
 Alpha  occ. eigenvalues --   -0.74698  -0.73224  -0.67402  -0.61719  -0.60293
 Alpha  occ. eigenvalues --   -0.59930  -0.58649  -0.54872  -0.54423  -0.53711
 Alpha  occ. eigenvalues --   -0.51768  -0.50300  -0.49752  -0.49641  -0.48384
 Alpha  occ. eigenvalues --   -0.48350  -0.45270  -0.42973  -0.36532  -0.36406
 Alpha  occ. eigenvalues --   -0.36400  -0.36283  -0.36022  -0.35805  -0.35765
 Alpha  occ. eigenvalues --   -0.34152  -0.33477
 Alpha virt. eigenvalues --   -0.01877  -0.00630   0.00068   0.00971   0.01243
 Alpha virt. eigenvalues --    0.01557   0.01856   0.02653   0.02767   0.03043
 Alpha virt. eigenvalues --    0.03375   0.04001   0.04319   0.04518   0.05651
 Alpha virt. eigenvalues --    0.05995   0.06054   0.06830   0.07088   0.07437
 Alpha virt. eigenvalues --    0.07779   0.08201   0.08400   0.08901   0.09036
 Alpha virt. eigenvalues --    0.09394   0.10326   0.10917   0.11011   0.12123
 Alpha virt. eigenvalues --    0.12169   0.12481   0.12900   0.13490   0.13806
 Alpha virt. eigenvalues --    0.14177   0.14457   0.14918   0.15750   0.16104
 Alpha virt. eigenvalues --    0.16218   0.16444   0.16887   0.17590   0.17732
 Alpha virt. eigenvalues --    0.18592   0.18631   0.19494   0.20373   0.21082
 Alpha virt. eigenvalues --    0.21825   0.21912   0.22213   0.22929   0.23151
 Alpha virt. eigenvalues --    0.24928   0.25880   0.26834   0.27206   0.28924
 Alpha virt. eigenvalues --    0.30765   0.31103   0.32853   0.34331   0.34564
 Alpha virt. eigenvalues --    0.34822   0.35097   0.35163   0.37604   0.38704
 Alpha virt. eigenvalues --    0.38790   0.40021   0.42174   0.43133   0.43249
 Alpha virt. eigenvalues --    0.44734   0.45144   0.45732   0.46676   0.47108
 Alpha virt. eigenvalues --    0.47366   0.48183   0.48674   0.48738   0.49365
 Alpha virt. eigenvalues --    0.51053   0.51242   0.51958   0.53618   0.54979
 Alpha virt. eigenvalues --    0.55009   0.57274   0.58019   0.58314   0.59162
 Alpha virt. eigenvalues --    0.60085   0.60940   0.61286   0.61749   0.61850
 Alpha virt. eigenvalues --    0.62864   0.63000   0.63892   0.64115   0.65058
 Alpha virt. eigenvalues --    0.66870   0.67246   0.67499   0.67822   0.68775
 Alpha virt. eigenvalues --    0.69022   0.69817   0.71366   0.72087   0.73516
 Alpha virt. eigenvalues --    0.73876   0.74369   0.74607   0.75242   0.75339
 Alpha virt. eigenvalues --    0.77888   0.79310   0.80946   0.81598   0.81751
 Alpha virt. eigenvalues --    0.83977   0.86622   0.87253   0.87769   0.89958
 Alpha virt. eigenvalues --    0.90962   0.93227   0.95069   0.97476   0.98311
 Alpha virt. eigenvalues --    0.98725   0.99849   1.01861   1.03199   1.03452
 Alpha virt. eigenvalues --    1.06226   1.07030   1.07946   1.08342   1.11819
 Alpha virt. eigenvalues --    1.12998   1.16351   1.18595   1.18674   1.22673
 Alpha virt. eigenvalues --    1.23738   1.26541   1.28248   1.34178   1.34358
 Alpha virt. eigenvalues --    1.38863   1.45805   1.47594   1.48451   1.49408
 Alpha virt. eigenvalues --    1.49910   1.51715   1.52508   1.55434   1.57922
 Alpha virt. eigenvalues --    1.57965   1.60929   1.64174   1.65452   1.65849
 Alpha virt. eigenvalues --    1.67076   1.67674   1.67676   1.71501   1.72402
 Alpha virt. eigenvalues --    1.73569   1.76535   1.76932   1.80008   1.81626
 Alpha virt. eigenvalues --    1.84056   1.85497   1.85685   1.89548   1.93710
 Alpha virt. eigenvalues --    1.95840   1.97919   2.02738   2.03085   2.03437
 Alpha virt. eigenvalues --    2.03514   2.03749   2.04016   2.04298   2.04991
 Alpha virt. eigenvalues --    2.05743   2.06140   2.06554   2.06818   2.07457
 Alpha virt. eigenvalues --    2.07933   2.09066   2.10871   2.12204   2.14318
 Alpha virt. eigenvalues --    2.16990   2.18372   2.18517   2.18918   2.21792
 Alpha virt. eigenvalues --    2.28967   2.35766   2.40637   2.45999   2.48328
 Alpha virt. eigenvalues --    2.50270   2.51699   2.57289   2.59941   2.62490
 Alpha virt. eigenvalues --    2.63924   2.65359   2.66040   2.70635   2.70827
 Alpha virt. eigenvalues --    2.73815   2.76983   2.77553   2.78302   2.78395
 Alpha virt. eigenvalues --    2.80504   2.85695   2.85834   2.88552   2.89953
 Alpha virt. eigenvalues --    2.90281   2.95875   2.98673   2.99656   3.02680
 Alpha virt. eigenvalues --    3.07889   3.11487   3.24153   3.26916   3.34897
 Alpha virt. eigenvalues --    3.39429   3.42028   3.54397   3.58933   3.61489
 Alpha virt. eigenvalues --    3.64211   3.74941   3.75527   3.85888   3.88062
 Alpha virt. eigenvalues --    3.97218   3.98947   4.03299   4.08448   4.13552
 Alpha virt. eigenvalues --    4.16806   4.18555   4.25386   4.25555   4.28862
 Alpha virt. eigenvalues --    4.28863   4.29456   4.29744   4.30271   4.30298
 Alpha virt. eigenvalues --    4.33598   4.33990   4.34712   4.35321   4.36523
 Alpha virt. eigenvalues --    4.37262   4.37395   4.49750   4.50375   4.52817
 Alpha virt. eigenvalues --    4.94227   4.95395   5.12167   5.23199   5.82848
 Alpha virt. eigenvalues --    6.53006   6.64679   6.83399   6.83743   6.88984
 Alpha virt. eigenvalues --    6.92947   7.63234   7.63812   7.64760   7.65924
 Alpha virt. eigenvalues --    7.66208   7.66652   7.68176   7.68341   7.68627
 Alpha virt. eigenvalues --   23.73503  24.16704  24.26410  24.31233  24.53625
 Alpha virt. eigenvalues --   24.56825  24.72390  48.36027  48.36444  48.42404
 Alpha virt. eigenvalues --   50.06363  66.96390 290.77847 290.78487 290.79624
 Alpha virt. eigenvalues --  290.80806 290.81368 290.81627 290.85366 290.85504
 Alpha virt. eigenvalues --  290.855991020.916841020.923271020.99832
          Condensed to atoms (all electrons):
               1          2          3          4          5          6
     1  C   17.829312  -1.500081  -3.288618  -1.454511  -3.293244  -1.509412
     2  C   -1.500081  20.641695   0.665659  -1.252029  -0.575811 -12.181049
     3  C   -3.288618   0.665659   8.635834   1.100340  -0.912552  -0.574640
     4  C   -1.454511  -1.252029   1.100340   7.494570   1.102468  -1.248572
     5  C   -3.293244  -0.575811  -0.912552   1.102468   8.639768   0.666060
     6  C   -1.509412 -12.181049  -0.574640  -1.248572   0.666060  20.645261
     7  F    0.462507  -0.248924  -0.005220   0.025447  -0.005272  -0.247743
     8  H   -0.648705   0.495070   0.240401   0.116038   0.141414  -0.219864
     9  H    0.088930  -0.043119   0.406442  -0.139490  -0.057385   0.095027
    10  H    0.043593  -0.012876  -0.073790   0.479394  -0.073766  -0.012744
    11  H    0.089189   0.095125  -0.057366  -0.139524   0.406288  -0.043280
    12  H   -0.648601  -0.219871   0.141337   0.115928   0.240325   0.495158
    13  O    0.026204  -0.012841  -0.000874  -0.000508  -0.000858  -0.012771
    14  C   -0.002950   0.001023   0.000790   0.000363   0.000799   0.001044
    15  H    0.002784  -0.001130  -0.000365  -0.000062  -0.000373  -0.001183
    16  H   -0.003895   0.001433   0.000349   0.000029   0.000353   0.001460
    17  H   -0.089471   0.019444   0.008478  -0.011217   0.008181   0.017722
    18  Br   0.324482  -0.086426  -0.045557   0.003234  -0.045282  -0.085094
    19  H   -0.103654   0.342183  -0.011099   0.004873  -0.014177  -0.239330
    20  Br   0.031249  -0.372530   0.115773   0.023513   0.025800   0.101949
    21  H   -0.103695  -0.239324  -0.013990   0.004889  -0.011387   0.342230
    22  Br   0.031294   0.102121   0.025705   0.023453   0.115945  -0.372685
               7          8          9         10         11         12
     1  C    0.462507  -0.648705   0.088930   0.043593   0.089189  -0.648601
     2  C   -0.248924   0.495070  -0.043119  -0.012876   0.095125  -0.219871
     3  C   -0.005220   0.240401   0.406442  -0.073790  -0.057366   0.141337
     4  C    0.025447   0.116038  -0.139490   0.479394  -0.139524   0.115928
     5  C   -0.005272   0.141414  -0.057385  -0.073766   0.406288   0.240325
     6  C   -0.247743  -0.219864   0.095027  -0.012744  -0.043280   0.495158
     7  F    9.256908  -0.001094  -0.001871   0.001582  -0.001860  -0.001167
     8  H   -0.001094   0.845901  -0.049803  -0.001329   0.004141  -0.009895
     9  H   -0.001871  -0.049803   0.511864  -0.016567  -0.000057   0.004152
    10  H    0.001582  -0.001329  -0.016567   0.519995  -0.016563  -0.001328
    11  H   -0.001860   0.004141  -0.000057  -0.016563   0.511857  -0.049834
    12  H   -0.001167  -0.009895   0.004152  -0.001328  -0.049834   0.846176
    13  O    0.013911   0.001946   0.000009   0.000002   0.000010   0.001921
    14  C    0.004514   0.000625  -0.000048   0.000017  -0.000048   0.000618
    15  H   -0.000332  -0.000138   0.000001  -0.000001   0.000001  -0.000137
    16  H   -0.000460  -0.000134   0.000007  -0.000001   0.000007  -0.000133
    17  H   -0.022289   0.008554   0.001432  -0.001189   0.001442   0.008431
    18  Br   0.001300  -0.002002  -0.001878   0.001527  -0.001883  -0.001936
    19  H   -0.040791  -0.007556   0.000960   0.000339  -0.000192   0.004057
    20  Br   0.019056   0.109740  -0.007190  -0.000559   0.000511  -0.005137
    21  H   -0.040729   0.003966  -0.000182   0.000337   0.000974  -0.007598
    22  Br   0.018986  -0.005081   0.000506  -0.000558  -0.007193   0.109771
              13         14         15         16         17         18
     1  C    0.026204  -0.002950   0.002784  -0.003895  -0.089471   0.324482
     2  C   -0.012841   0.001023  -0.001130   0.001433   0.019444  -0.086426
     3  C   -0.000874   0.000790  -0.000365   0.000349   0.008478  -0.045557
     4  C   -0.000508   0.000363  -0.000062   0.000029  -0.011217   0.003234
     5  C   -0.000858   0.000799  -0.000373   0.000353   0.008181  -0.045282
     6  C   -0.012771   0.001044  -0.001183   0.001460   0.017722  -0.085094
     7  F    0.013911   0.004514  -0.000332  -0.000460  -0.022289   0.001300
     8  H    0.001946   0.000625  -0.000138  -0.000134   0.008554  -0.002002
     9  H    0.000009  -0.000048   0.000001   0.000007   0.001432  -0.001878
    10  H    0.000002   0.000017  -0.000001  -0.000001  -0.001189   0.001527
    11  H    0.000010  -0.000048   0.000001   0.000007   0.001442  -0.001883
    12  H    0.001921   0.000618  -0.000137  -0.000133   0.008431  -0.001936
    13  O    8.155296   0.274651  -0.088199  -0.093136   0.009594  -0.004735
    14  C    0.274651   4.832701   0.401585   0.402531  -0.003345   0.000685
    15  H   -0.088199   0.401585   0.740175  -0.162057   0.005616  -0.001416
    16  H   -0.093136   0.402531  -0.162057   0.743032  -0.001890   0.000738
    17  H    0.009594  -0.003345   0.005616  -0.001890   0.641119   0.236390
    18  Br  -0.004735   0.000685  -0.001416   0.000738   0.236390  34.832034
    19  H    0.013310   0.001883  -0.000675   0.001359   0.006046  -0.005542
    20  Br  -0.007888  -0.001217   0.000217  -0.000636  -0.000638   0.000973
    21  H    0.013379   0.002041  -0.000669   0.001338   0.006044  -0.005552
    22  Br  -0.007965  -0.001268   0.000210  -0.000625  -0.000674   0.000993
              19         20         21         22
     1  C   -0.103654   0.031249  -0.103695   0.031294
     2  C    0.342183  -0.372530  -0.239324   0.102121
     3  C   -0.011099   0.115773  -0.013990   0.025705
     4  C    0.004873   0.023513   0.004889   0.023453
     5  C   -0.014177   0.025800  -0.011387   0.115945
     6  C   -0.239330   0.101949   0.342230  -0.372685
     7  F   -0.040791   0.019056  -0.040729   0.018986
     8  H   -0.007556   0.109740   0.003966  -0.005081
     9  H    0.000960  -0.007190  -0.000182   0.000506
    10  H    0.000339  -0.000559   0.000337  -0.000558
    11  H   -0.000192   0.000511   0.000974  -0.007193
    12  H    0.004057  -0.005137  -0.007598   0.109771
    13  O    0.013310  -0.007888   0.013379  -0.007965
    14  C    0.001883  -0.001217   0.002041  -0.001268
    15  H   -0.000675   0.000217  -0.000669   0.000210
    16  H    0.001359  -0.000636   0.001338  -0.000625
    17  H    0.006046  -0.000638   0.006044  -0.000674
    18  Br  -0.005542   0.000973  -0.005552   0.000993
    19  H    0.707932   0.194165  -0.030162   0.015884
    20  Br   0.194165  34.886606   0.015904  -0.006806
    21  H   -0.030162   0.015904   0.708110   0.193980
    22  Br   0.015884  -0.006806   0.193980  34.886793
 Mulliken charges:
               1
     1  C   -0.282709
     2  C    0.382259
     3  C   -0.357038
     4  C   -0.248627
     5  C   -0.357294
     6  C    0.382458
     7  F   -0.186458
     8  H   -0.022197
     9  H    0.208260
    10  H    0.164485
    11  H    0.208255
    12  H   -0.022239
    13  O   -0.280459
    14  C    0.083007
    15  H    0.106150
    16  H    0.110334
    17  H    0.152219
    18  Br  -0.115050
    19  H    0.160186
    20  Br  -0.122853
    21  H    0.160097
    22  Br  -0.122785
 Sum of Mulliken charges =  -0.00000
 Mulliken charges with hydrogens summed into heavy atoms:
               1
     1  C   -0.282709
     2  C    0.360062
     3  C   -0.148778
     4  C   -0.084141
     5  C   -0.149039
     6  C    0.360220
     7  F   -0.186458
    13  O   -0.280459
    14  C    0.299491
    18  Br   0.037168
    20  Br   0.037332
    22  Br   0.037311
 Electronic spatial extent (au):  <R**2>=           7385.2505
 Charge=              0.0000 electrons
 Dipole moment (field-independent basis, Debye):
    X=              0.0087    Y=             -0.1367    Z=             -0.8180  Tot=              0.8294
 Quadrupole moment (field-independent basis, Debye-Ang):
   XX=           -112.5608   YY=           -120.0012   ZZ=            -81.6278
   XY=              0.0011   XZ=             -0.1057   YZ=             -0.0127
 Traceless Quadrupole moment (field-independent basis, Debye-Ang):
   XX=             -7.8309   YY=            -15.2713   ZZ=             23.1022
   XY=              0.0011   XZ=             -0.1057   YZ=             -0.0127
 Octapole moment (field-independent basis, Debye-Ang**2):
  XXX=             -0.0374  YYY=             -3.8603  ZZZ=           -121.8536  XYY=              0.0400
  XXY=              2.0680  XXZ=              0.2721  XZZ=              0.4412  YZZ=             -0.1769
  YYZ=            -21.6240  XYZ=              0.0034
 Hexadecapole moment (field-independent basis, Debye-Ang**3):
 XXXX=          -2574.3167 YYYY=          -2390.2732 ZZZZ=          -1932.6161 XXXY=              0.0858
 XXXZ=              0.8861 YYYX=             -0.0157 YYYZ=             11.8737 ZZZX=             -1.3145
 ZZZY=             -0.3398 XXYY=           -834.9952 XXZZ=           -851.7768 YYZZ=           -870.4819
 XXYZ=            -11.8166 YYXZ=              0.3764 ZZXY=             -0.0445
 N-N= 1.603303028307D+03 E-N=-2.271782065282D+04  KE= 8.162166404100D+03
 Calling FoFJK, ICntrl=      2127 FMM=F ISym2X=0 I1Cent= 0 IOpClX= 0 NMat=1 NMatS=1 NMatT=0.
 ***** Axes restored to original set *****
 -------------------------------------------------------------------
 Center     Atomic                   Forces (Hartrees/Bohr)
 Number     Number              X              Y              Z
 -------------------------------------------------------------------
      1        6          -0.081405134    0.000195616   -0.046998539
      2        6          -0.053036913    0.001343557    0.014608269
      3        6           0.002691848    0.000151490    0.036626705
      4        6           0.038388187   -0.000383387    0.022163791
      5        6           0.033060778    0.000151565   -0.015990154
      6        6          -0.013877932    0.001343600   -0.053234563
      7        9           0.019366356   -0.000017397    0.011180694
      8        1          -0.062356056    0.001789266    0.036438110
      9        1          -0.001893336    0.000057120    0.073743316
     10        1           0.064285529    0.000008212    0.037115116
     11        1           0.062917940    0.000057084   -0.038510038
     12        1           0.000378254    0.001788596   -0.072221663
     13        8           0.012354878    0.000060007    0.007108169
     14        6           0.066536463    0.000010134    0.038763228
     15        1          -0.039321594    0.072311797   -0.022865316
     16        1          -0.039327550   -0.072287294   -0.022869765
     17        1          -0.002932677   -0.013737699   -0.001693434
     18       35           0.002236664    0.011708650    0.001289703
     19        1           0.001985933    0.005716598   -0.012525774
     20       35          -0.006123366   -0.007993635    0.010383772
     21        1          -0.009838240    0.005732357    0.008000763
     22       35           0.005909968   -0.008006237   -0.010512390
 -------------------------------------------------------------------
 Cartesian Forces:  Max     0.081405134 RMS     0.032277837
 -----------------------------------------------------------------------------------------------
                       Internal Coordinate Forces (Hartree/Bohr or radian)
  Cent   Atom   N1       Length/X         N2         Alpha/Y        N3         Beta/Z          J
 -----------------------------------------------------------------------------------------------
      1  C 
      2  C        1   0.040991(     1)
      3  C        2   0.156137(     2)      1   0.173656(    22)
      4  C        3   0.220686(     3)      2   0.424351(    23)      1   0.010582(    42)     0
      5  C        4   0.179704(     4)      3   0.449375(    24)      2   0.013851(    43)     0
      6  C        5   0.074167(     5)      4   0.246396(    25)      3   0.006744(    44)     0
      7  F        1  -0.012523(     6)      2  -0.000053(    26)      3   0.003434(    45)     0
      8  H        2   0.072221(     7)      3  -0.000715(    27)      4   0.002928(    46)     0
      9  H        3   0.073743(     8)      4   0.003578(    28)      5   0.000093(    47)     0
     10  H        4   0.074230(     9)      5  -0.000000(    29)      6   0.000013(    48)     0
     11  H        5   0.073744(    10)      6  -0.003575(    30)      1   0.000093(    49)     0
     12  H        6   0.072222(    11)      1   0.000715(    31)      2   0.002927(    50)     0
     13  O        7  -0.000278(    12)      1  -0.000019(    32)      3  -0.000001(    51)     0
     14  C       13   0.013976(    13)      1   0.000104(    33)      2  -0.000000(    52)     0
     15  H       14   0.085367(    14)      1   0.006116(    34)      2   0.000116(    53)     0
     16  H       14   0.085349(    15)      1   0.006151(    35)      2  -0.000117(    54)     0
     17  H        7  -0.001859(    16)      1   0.003628(    36)      2   0.000011(    55)     0
     18  Br      17   0.011979(    17)      7  -0.001348(    37)      1   0.000001(    56)     0
     19  H        7   0.002112(    18)      1   0.025844(    38)      2  -0.010317(    57)     0
     20  Br      19   0.014198(    19)      7   0.006922(    39)      1  -0.000810(    58)     0
     21  H        7   0.002108(    20)      1   0.025937(    40)      2   0.010333(    59)     0
     22  Br      21   0.014203(    21)      7   0.006996(    41)      1   0.000818(    60)     0
 -----------------------------------------------------------------------------------------------
 Internal  Forces:  Max     0.449374775 RMS     0.102460048

 GradGradGradGradGradGradGradGradGradGradGradGradGradGradGradGradGradGrad
 Berny optimization.
 Search for a local minimum.
 Step number   1 out of a maximum of   31
 All quantities printed in internal units (Hartrees-Bohrs-Radians)
 Second derivative matrix not updated -- first step.
 ITU=  0
     Eigenvalues ---    0.02330   0.02721   0.02721   0.02721   0.24007
     Eigenvalues ---    0.24007   0.24007   0.45621   0.47688   0.47688
     Eigenvalues ---    0.47688   0.47688   0.47688   0.47688   0.47688
     Eigenvalues ---    0.67193   0.67193   0.67193   1.04823   1.12429
     Eigenvalues ---    2.01579
 RFO step:  Lambda=-1.60928630D-01 EMin= 2.33007068D-02
 Linear search not attempted -- first point.
 Maximum step size (   0.300) exceeded in Quadratic search.
    -- Step size scaled by   0.670
 Variable       Old X    -DE/DX   Delta X   Delta X   Delta X     New X
                                 (Linear)    (Quad)   (Total)
    d1        2.45664   0.04099   0.00000   0.07815   0.07815   2.53479
    d2        2.45664   0.15614   0.00000   0.08858   0.08858   2.54523
    d3        2.45664   0.22069   0.00000   0.09540   0.09540   2.55204
    d4        2.45664   0.17970   0.00000   0.09952   0.09952   2.55616
    d5        2.45664   0.07417   0.00000   0.09682   0.09682   2.55346
    d6        2.64562  -0.01252   0.00000  -0.01361  -0.01361   2.63201
    d7        1.88973   0.07222   0.00000   0.07592   0.07592   1.96564
    d8        1.88973   0.07374   0.00000   0.07752   0.07752   1.96725
    d9        1.88973   0.07423   0.00000   0.07803   0.07803   1.96776
   d10        1.88973   0.07374   0.00000   0.07752   0.07752   1.96725
   d11        1.88973   0.07222   0.00000   0.07592   0.07592   1.96565
   d12        5.29123  -0.00028   0.00000  -0.00101  -0.00101   5.29022
   d13        2.26767   0.01398   0.00000   0.00775   0.00775   2.27542
   d14        1.88973   0.08537   0.00000   0.08974   0.08974   1.97946
   d15        1.88973   0.08535   0.00000   0.08972   0.08972   1.97945
   d16        4.34637  -0.00186   0.00000  -0.00662  -0.00662   4.33975
   d17        2.64562   0.01198   0.00000   0.02003   0.02003   2.66565
   d18        4.34637   0.00211   0.00000   0.00753   0.00753   4.35390
   d19        2.64562   0.01420   0.00000   0.02374   0.02374   2.66935
   d20        4.34637   0.00211   0.00000   0.00751   0.00751   4.35388
   d21        2.64562   0.01420   0.00000   0.02375   0.02375   2.66936
         Item               Value     Threshold  Converged?
 Maximum Force            0.220686     0.000450     NO 
 RMS     Force            0.085873     0.000300     NO 
 Maximum Displacement     0.099516     0.001800     NO 
 RMS     Displacement     0.065465     0.001200     NO 
 Predicted change in Energy=-7.896837D-02
 GradGradGradGradGradGradGradGradGradGradGradGradGradGradGradGradGradGrad

 ---------------------------------------------------------------------------------------------------
                            Z-MATRIX (ANGSTROMS AND DEGREES)
   CD    Cent   Atom    N1       Length/X        N2       Alpha/Y        N3        Beta/Z          J
 ---------------------------------------------------------------------------------------------------
      1      1  C 
      2      2  C        1   1.341354(     1)
      3      3  C        2   1.346876(     2)      1  120.000(    22)
      4      4  C        3   1.350481(     3)      2  120.000(    23)      1    0.000(    42)      0
      5      5  C        4   1.352661(     4)      3  120.000(    24)      2    0.000(    43)      0
      6      6  C        5   1.351233(     5)      4  120.000(    25)      3    0.000(    44)      0
      7      7  F        1   1.392800(     6)      2  120.000(    26)      3  180.000(    45)      0
      8      8  H        2   1.040174(     7)      3  120.000(    27)      4  180.000(    46)      0
      9      9  H        3   1.041021(     8)      4  120.000(    28)      5  180.000(    47)      0
     10     10  H        4   1.041292(     9)      5  120.000(    29)      6  180.000(    48)      0
     11     11  H        5   1.041021(    10)      6  120.000(    30)      1  180.000(    49)      0
     12     12  H        6   1.040175(    11)      1  120.000(    31)      2  180.000(    50)      0
     13     13  O        7   2.799465(    12)      1  179.900(    32)      3  180.000(    51)      0
     14     14  C       13   1.204101(    13)      1  179.900(    33)      2  180.000(    52)      0
     15     15  H       14   1.047487(    14)      1  120.000(    34)      2   90.000(    53)      0
     16     16  H       14   1.047477(    15)      1  120.000(    35)      2  -90.000(    54)      0
     17     17  H        7   2.296495(    16)      1  100.000(    36)      2   90.000(    55)      0
     18     18  Br      17   1.410599(    17)      7  160.000(    37)      1    0.000(    56)      0
     19     19  H        7   2.303982(    18)      1  100.000(    38)      2  -30.000(    57)      0
     20     20  Br      19   1.412562(    19)      7  160.000(    39)      1    0.000(    58)      0
     21     21  H        7   2.303976(    20)      1  100.000(    40)      2 -150.000(    59)      0
     22     22  Br      21   1.412567(    21)      7  160.000(    41)      1    0.000(    60)      0
 ---------------------------------------------------------------------------------------------------
                         Z-Matrix orientation:                         
 ---------------------------------------------------------------------
 Center     Atomic      Atomic             Coordinates (Angstroms)
 Number     Number       Type             X           Y           Z
 ---------------------------------------------------------------------
      1          6           0        0.000000    0.000000    0.000000
      2          6           0        0.000000    0.000000    1.341354
      3          6           0        1.166429    0.000000    2.014792
      4          6           0        2.335980    0.000000    1.339551
      5          6           0        2.335980    0.000000   -0.013110
      6          6           0        1.165777    0.000000   -0.688727
      7          9           0       -1.206200   -0.000000   -0.696400
      8          1           0       -0.900817   -0.000000    1.861441
      9          1           0        1.166429   -0.000000    3.055813
     10          1           0        3.237765   -0.000000    1.860198
     11          1           0        3.237531   -0.000000   -0.533621
     12          1           0        1.155356   -0.000000   -1.728849
     13          8           0       -3.628161   -0.000000   -2.100362
     14          6           0       -4.669186   -0.000000   -2.705445
     15          1           0       -5.122354    0.907151   -2.968022
     16          1           0       -5.122350   -0.907142   -2.968019
     17          1           0       -1.551556    2.261606   -0.895791
     18         35           0       -1.339425    3.650775   -0.773317
     19          1           0       -2.535179   -1.134490    0.805293
     20         35           0       -2.925117   -1.830041    1.971264
     21          1           0       -0.570186   -1.134487   -2.598171
     22         35           0        0.244607   -1.830040   -3.518856
 ---------------------------------------------------------------------
                    Distance matrix (angstroms):
                    1          2          3          4          5
     1  C    0.000000
     2  C    1.341354   0.000000
     3  C    2.328077   1.346876   0.000000
     4  C    2.692805   2.335980   1.350481   0.000000
     5  C    2.336016   2.700254   2.340990   1.352661   0.000000
     6  C    1.354024   2.340997   2.703519   2.341642   1.351233
     7  F    1.392800   2.367987   3.602767   4.085601   3.607482
     8  H    2.067955   1.040174   2.072926   3.278601   3.740428
     9  H    3.270864   2.073626   1.041021   2.076874   3.284226
    10  H    3.734094   3.279073   2.077098   1.041292   2.079062
    11  H    3.281212   3.741275   3.283880   2.078838   1.041021
    12  H    2.079367   3.280396   3.743658   3.287698   2.082699
    13  O    4.192264   5.000896   6.318432   6.885055   6.318829
    14  C    5.396363   6.178825   7.505667   8.089150   7.504733
    15  H    5.989206   6.755157   8.074660   8.660534   8.073485
    16  H    5.989199   6.755151   8.074655   8.660528   8.073479
    17  H    2.885244   3.539351   4.579716   5.022405   4.583331
    18  Br   3.964875   4.426517   5.232687   5.594727   5.235902
    19  H    2.891833   2.828703   4.056088   5.029978   5.068040
    20  Br   3.973819   3.507441   4.482375   5.606001   5.913199
    21  H    2.891827   4.139086   5.057897   5.023795   4.051592
    22  Br   3.973818   5.199089   5.900853   5.597053   4.473605
                    6          7          8          9         10
     6  C    0.000000
     7  F    2.371990   0.000000
     8  H    3.282403   2.576007   0.000000
     9  H    3.744540   4.439423   2.387474   0.000000
    10  H    3.284836   5.126892   4.138583   2.391638   0.000000
    11  H    2.077551   4.446711   4.781448   4.144092   2.393818
    12  H    1.040175   2.577382   4.137395   4.784675   4.149420
    13  O    4.997455   2.799465   4.809812   7.040897   7.926347
    14  C    6.173650   4.003565   5.920900   8.200396   9.130442
    15  H    6.749719   4.617298   6.478272   8.755472   9.696711
    16  H    6.749713   4.617292   6.478266   8.755467   9.696706
    17  H    3.541417   2.296495   3.625004   5.302592   5.970589
    18  Br   4.428470   3.654015   4.523548   5.854033   6.419831
    19  H    4.149245   2.303982   2.252477   4.478147   5.977188
    20  Br   5.211527   3.663353   2.731098   4.611512   6.429814
    21  H    2.818973   2.303976   4.613515   6.022494   5.971985
    22  Br   3.493885   3.663352   5.797296   6.886587   6.422014
                   11         12         13         14         15
    11  H    0.000000
    12  H    2.400838   0.000000
    13  O    7.042187   4.797922   0.000000
    14  C    8.199573   5.905847   1.204101   0.000000
    15  H    8.754250   6.462825   1.951504   1.047487   0.000000
    16  H    8.754245   6.462819   1.951496   1.047477   1.814293
    17  H    5.308614   3.624392   3.298203   4.255506   4.345030
    18  Br   5.859533   4.523840   4.508605   5.305524   5.162824
    19  H    6.033567   4.618332   3.305225   4.262199   5.009958
    20  Br   6.899400   5.804321   4.519011   5.316242   6.059423
    21  H    4.477515   2.240597   3.299407   4.254453   5.002729
    22  Br   4.606329   2.717100   4.512151   5.306228   6.049785
                   16         17         18         19         20
    16  H    0.000000
    17  H    5.204389   0.000000
    18  Br   6.316791   1.410599   0.000000
    19  H    4.580724   3.923604   5.178861   0.000000
    20  Br   5.484167   5.181530   6.331389   1.412562   0.000000
    21  H    4.572818   3.923599   5.178856   3.929983   5.187411
    22  Br   5.473517   5.181529   6.331388   5.187414   6.339446
                   21         22
    21  H    0.000000
    22  Br   1.412567   0.000000
 Stoichiometry    C7H10Br3FO
 Framework group  C1[X(C7H10Br3FO)]
 Deg. of freedom    60
 Full point group                 C1      NOp   1
 Largest Abelian subgroup         C1      NOp   1
 Largest concise Abelian subgroup C1      NOp   1
                         Standard orientation:                         
 ---------------------------------------------------------------------
 Center     Atomic      Atomic             Coordinates (Angstroms)
 Number     Number       Type             X           Y           Z
 ---------------------------------------------------------------------
      1          6           0       -0.000441    0.003860    1.153219
      2          6           0       -1.160986    0.005025    1.825798
      3          6           0       -1.158778    0.007297    3.172670
      4          6           0        0.011878    0.008402    3.845992
      5          6           0        1.182207    0.007227    3.167743
      6          6           0        1.179992    0.004948    1.816513
      7          9           0       -0.002724    0.001510   -0.239578
      8          1           0       -2.062655    0.004174    1.307189
      9          1           0       -2.059475    0.008202    3.694657
     10          1           0        0.013585    0.010159    4.887281
     11          1           0        2.084610    0.008079    3.686774
     12          1           0        2.074685    0.004029    1.285960
     13          8           0       -0.002427   -0.003213   -3.039038
     14          6           0       -0.000896   -0.005244   -4.243136
     15          1           0       -0.000916    0.901021   -4.768410
     16          1           0       -0.000964   -0.913269   -4.765344
     17          1           0       -0.003318    2.262440   -0.642174
     18         35           0       -0.002880    3.652020   -0.399571
     19          1           0       -1.968401   -1.133596   -0.634524
     20         35           0       -3.172745   -1.828697   -0.386087
     21          1           0        1.961576   -1.133707   -0.640965
     22         35           0        3.166692   -1.828881   -0.396477
 ---------------------------------------------------------------------
 Rotational constants (GHZ):           0.1938435           0.1875982           0.1547165
 Standard basis: 6-311++G(d,p) (5D, 7F)
 There are   430 symmetry adapted cartesian basis functions of A   symmetry.
 There are   412 symmetry adapted basis functions of A   symmetry.
   412 basis functions,   696 primitive gaussians,   430 cartesian basis functions
    87 alpha electrons       87 beta electrons
       nuclear repulsion energy      1587.9038459679 Hartrees.
 NAtoms=   22 NActive=   22 NUniq=   22 SFac= 1.00D+00 NAtFMM=   60 NAOKFM=F Big=F
 Integral buffers will be    131072 words long.
 Raffenetti 2 integral format.
 Two-electron integral symmetry is turned on.
 One-electron integrals computed using PRISM.
 NBasis=   412 RedAO= T EigKep=  4.26D-06  NBF=   412
 NBsUse=   411 1.00D-06 EigRej=  5.33D-07 NBFU=   411
 Initial guess from the checkpoint file:  "model_H3.chk"
 B after Tr=     0.000000   -0.000000    0.000000
         Rot=    0.999997    0.000846   -0.002178    0.000015 Ang=   0.27 deg.
 ExpMin= 3.50D-02 ExpMax= 4.40D+05 ExpMxC= 1.51D+04 IAcc=3 IRadAn=         5 AccDes= 0.00D+00
 Harris functional with IExCor= 1009 and IRadAn=       5 diagonalized for initial guess.
 HarFok:  IExCor= 1009 AccDes= 0.00D+00 IRadAn=         5 IDoV= 1 UseB2=F ITyADJ=14
 ICtDFT=  3500011 ScaDFX=  1.000000  1.000000  1.000000  1.000000
 FoFCou: FMM=F IPFlag=           0 FMFlag=      100000 FMFlg1=           0
         NFxFlg=           0 DoJE=T BraDBF=F KetDBF=T FulRan=T
         wScrn=  0.000000 ICntrl=       500 IOpCl=  0 I1Cent=   200000004 NGrid=           0
         NMat0=    1 NMatS0=      1 NMatT0=    0 NMatD0=    1 NMtDS0=    0 NMtDT0=    0
 Petite list used in FoFCou.
 Requested convergence on RMS density matrix=1.00D-08 within 128 cycles.
 Requested convergence on MAX density matrix=1.00D-06.
 Requested convergence on             energy=1.00D-06.
 No special actions if energy rises.
 SCF Done:  E(RM062X) =  -8170.21853309     A.U. after   14 cycles
            NFock= 14  Conv=0.20D-08     -V/T= 2.0012
 Calling FoFJK, ICntrl=      2127 FMM=F ISym2X=0 I1Cent= 0 IOpClX= 0 NMat=1 NMatS=1 NMatT=0.
 ***** Axes restored to original set *****
 -------------------------------------------------------------------
 Center     Atomic                   Forces (Hartrees/Bohr)
 Number     Number              X              Y              Z
 -------------------------------------------------------------------
      1        6          -0.024370865    0.000151727   -0.027297504
      2        6          -0.026830365    0.001502188    0.007702242
      3        6           0.007245803    0.000138374    0.008856473
      4        6           0.011613300   -0.000383032    0.005528843
      5        6           0.006151490    0.000142152   -0.001009490
      6        6          -0.011477256    0.001592051   -0.016174890
      7        9           0.018711250   -0.000032870    0.011415462
      8        1          -0.027618003    0.001895179    0.016469933
      9        1          -0.001569299    0.000063969    0.032969158
     10        1           0.028758672    0.000002638    0.016490892
     11        1           0.027768292    0.000067520   -0.017895320
     12        1           0.000702238    0.002013778   -0.031697376
     13        8           0.000995794    0.000046795    0.000505806
     14        6           0.039566960    0.000025753    0.023144231
     15        1          -0.020122956    0.032362643   -0.011735370
     16        1          -0.020137324   -0.032345416   -0.011744711
     17        1          -0.001988894   -0.007827759   -0.001155666
     18       35           0.001302142    0.005946622    0.000754475
     19        1           0.000075019    0.002228897   -0.006818054
     20       35          -0.004528212   -0.004809812    0.004648891
     21        1          -0.005922110    0.002166074    0.003431653
     22       35           0.001674323   -0.004947471   -0.006389680
 -------------------------------------------------------------------
 Cartesian Forces:  Max     0.039566960 RMS     0.014710136
 -----------------------------------------------------------------------------------------------
                       Internal Coordinate Forces (Hartree/Bohr or radian)
  Cent   Atom   N1       Length/X         N2         Alpha/Y        N3         Beta/Z          J
 -----------------------------------------------------------------------------------------------
      1  C 
      2  C        1   0.021915(     1)
      3  C        2   0.059140(     2)      1   0.040720(    22)
      4  C        3   0.077394(     3)      2   0.135152(    23)      1   0.012852(    42)     0
      5  C        4   0.066103(     4)      3   0.147937(    24)      2   0.016454(    43)     0
      6  C        5   0.032585(     5)      4   0.087949(    25)      3   0.008042(    44)     0
      7  F        1  -0.011365(     6)      2  -0.002221(    26)      3   0.004364(    45)     0
      8  H        2   0.032153(     7)      3  -0.000893(    27)      4   0.003226(    46)     0
      9  H        3   0.032969(     8)      4   0.003087(    28)      5   0.000109(    47)     0
     10  H        4   0.033151(     9)      5  -0.000192(    29)      6   0.000004(    48)     0
     11  H        5   0.032996(    10)      6  -0.003174(    30)      1   0.000115(    49)     0
     12  H        6   0.031689(    11)      1   0.002005(    31)      2   0.003428(    50)     0
     13  O        7  -0.000347(    12)      1  -0.000024(    32)      3  -0.000001(    51)     0
     14  C       13   0.000768(    13)      1   0.000103(    33)      2  -0.000000(    52)     0
     15  H       14   0.039674(    14)      1   0.007903(    34)      2   0.000112(    53)     0
     16  H       14   0.039668(    15)      1   0.007949(    35)      2  -0.000114(    54)     0
     17  H        7  -0.001714(    16)      1   0.003619(    36)      2   0.000011(    55)     0
     18  Br      17   0.006118(    17)      7  -0.001198(    37)      1  -0.000002(    56)     0
     19  H        7   0.002426(    18)      1   0.027821(    38)      2  -0.011520(    57)     0
     20  Br      19   0.007456(    19)      7   0.007838(    39)      1  -0.000932(    58)     0
     21  H        7   0.002639(    20)      1   0.029068(    40)      2   0.012279(    59)     0
     22  Br      21   0.007567(    21)      7   0.008291(    41)      1   0.001004(    60)     0
 -----------------------------------------------------------------------------------------------
 Internal  Forces:  Max     0.147936700 RMS     0.035694415

 GradGradGradGradGradGradGradGradGradGradGradGradGradGradGradGradGradGrad
 Berny optimization.
 Search for a local minimum.
 Step number   2 out of a maximum of   31
 All quantities printed in internal units (Hartrees-Bohrs-Radians)
 Update second derivatives using D2CorN and points    1    2
 DE= -7.49D-02 DEPred=-7.90D-02 R= 9.48D-01
 TightC=F SS=  1.41D+00  RLast= 3.00D-01 DXNew= 5.0454D-01 9.0000D-01
 Trust test= 9.48D-01 RLast= 3.00D-01 DXMaxT set to 5.05D-01
 ITU=  1  0
     Eigenvalues ---    0.02330   0.02709   0.02721   0.02722   0.24007
     Eigenvalues ---    0.24007   0.24071   0.45480   0.47666   0.47688
     Eigenvalues ---    0.47688   0.47688   0.47688   0.47688   0.49633
     Eigenvalues ---    0.67187   0.67193   0.70731   1.04885   1.12484
     Eigenvalues ---    2.02335
 RFO step:  Lambda=-4.14824488D-03 EMin= 2.32996217D-02
 Quartic linear search produced a step of  0.89152.
 Variable       Old X    -DE/DX   Delta X   Delta X   Delta X     New X
                                 (Linear)    (Quad)   (Total)
    d1        2.53479   0.02191   0.06967   0.00391   0.07358   2.60837
    d2        2.54523   0.05914   0.07897  -0.00814   0.07083   2.61606
    d3        2.55204   0.07739   0.08505  -0.02227   0.06278   2.61482
    d4        2.55616   0.06610   0.08872  -0.01372   0.07500   2.63116
    d5        2.55346   0.03259   0.08631  -0.00246   0.08386   2.63732
    d6        2.63201  -0.01136  -0.01213  -0.02706  -0.03919   2.59282
    d7        1.96564   0.03215   0.06768   0.01377   0.08145   2.04710
    d8        1.96725   0.03297   0.06911   0.01462   0.08373   2.05098
    d9        1.96776   0.03315   0.06957   0.01457   0.08414   2.05190
   d10        1.96725   0.03300   0.06911   0.01473   0.08384   2.05108
   d11        1.96565   0.03169   0.06768   0.01189   0.07958   2.04522
   d12        5.29022  -0.00035  -0.00090  -0.02010  -0.02100   5.26922
   d13        2.27542   0.00077   0.00691  -0.00970  -0.00279   2.27263
   d14        1.97946   0.03967   0.08000   0.02302   0.10302   2.08249
   d15        1.97945   0.03967   0.07999   0.02302   0.10301   2.08245
   d16        4.33975  -0.00171  -0.00590  -0.07955  -0.08546   4.25429
   d17        2.66565   0.00612   0.01786   0.01466   0.03251   2.69816
   d18        4.35390   0.00243   0.00671   0.12000   0.12671   4.48060
   d19        2.66935   0.00746   0.02116   0.01900   0.04017   2.70952
   d20        4.35388   0.00264   0.00670   0.13324   0.13994   4.49382
   d21        2.66936   0.00757   0.02117   0.01987   0.04104   2.71040
         Item               Value     Threshold  Converged?
 Maximum Force            0.077394     0.000450     NO 
 RMS     Force            0.033915     0.000300     NO 
 Maximum Displacement     0.139935     0.001800     NO 
 RMS     Displacement     0.079168     0.001200     NO 
 Predicted change in Energy=-1.488843D-02
 GradGradGradGradGradGradGradGradGradGradGradGradGradGradGradGradGradGrad

 ---------------------------------------------------------------------------------------------------
                            Z-MATRIX (ANGSTROMS AND DEGREES)
   CD    Cent   Atom    N1       Length/X        N2       Alpha/Y        N3        Beta/Z          J
 ---------------------------------------------------------------------------------------------------
      1      1  C 
      2      2  C        1   1.380291(     1)
      3      3  C        2   1.384359(     2)      1  120.000(    22)
      4      4  C        3   1.383703(     3)      2  120.000(    23)      1    0.000(    42)      0
      5      5  C        4   1.392349(     4)      3  120.000(    24)      2    0.000(    43)      0
      6      6  C        5   1.395607(     5)      4  120.000(    25)      3    0.000(    44)      0
      7      7  F        1   1.372064(     6)      2  120.000(    26)      3  180.000(    45)      0
      8      8  H        2   1.083278(     7)      3  120.000(    27)      4  180.000(    46)      0
      9      9  H        3   1.085330(     8)      4  120.000(    28)      5  180.000(    47)      0
     10     10  H        4   1.085817(     9)      5  120.000(    29)      6  180.000(    48)      0
     11     11  H        5   1.085386(    10)      6  120.000(    30)      1  180.000(    49)      0
     12     12  H        6   1.082286(    11)      1  120.000(    31)      2  180.000(    50)      0
     13     13  O        7   2.788352(    12)      1  179.900(    32)      3  180.000(    51)      0
     14     14  C       13   1.202623(    13)      1  179.900(    33)      2  180.000(    52)      0
     15     15  H       14   1.102004(    14)      1  120.000(    34)      2   90.000(    53)      0
     16     16  H       14   1.101987(    15)      1  120.000(    35)      2  -90.000(    54)      0
     17     17  H        7   2.251272(    16)      1  100.000(    36)      2   90.000(    55)      0
     18     18  Br      17   1.427803(    17)      7  160.000(    37)      1    0.000(    56)      0
     19     19  H        7   2.371032(    18)      1  100.000(    38)      2  -30.000(    57)      0
     20     20  Br      19   1.433816(    19)      7  160.000(    39)      1    0.000(    58)      0
     21     21  H        7   2.378027(    20)      1  100.000(    40)      2 -150.000(    59)      0
     22     22  Br      21   1.434284(    21)      7  160.000(    41)      1    0.000(    60)      0
 ---------------------------------------------------------------------------------------------------
                         Z-Matrix orientation:                         
 ---------------------------------------------------------------------
 Center     Atomic      Atomic             Coordinates (Angstroms)
 Number     Number       Type             X           Y           Z
 ---------------------------------------------------------------------
      1          6           0        0.000000    0.000000    0.000000
      2          6           0        0.000000    0.000000    1.380291
      3          6           0        1.198890    0.000000    2.072470
      4          6           0        2.397212    0.000000    1.380619
      5          6           0        2.397212    0.000000   -0.011730
      6          6           0        1.188580    0.000000   -0.709534
      7          9           0       -1.188242   -0.000000   -0.686032
      8          1           0       -0.938146   -0.000000    1.921930
      9          1           0        1.198890   -0.000000    3.157800
     10          1           0        3.337557   -0.000000    1.923527
     11          1           0        3.337184   -0.000000   -0.554424
     12          1           0        1.172799   -0.000000   -1.791705
     13          8           0       -3.600588   -0.000000   -2.084420
     14          6           0       -4.640334   -0.000000   -2.688765
     15          1           0       -5.117085    0.954363   -2.965011
     16          1           0       -5.117077   -0.954349   -2.965007
     17          1           0       -1.526797    2.217071   -0.881496
     18         35           0       -1.312078    3.623182   -0.757529
     19          1           0       -2.555896   -1.167505    0.859363
     20         35           0       -2.951702   -1.873522    2.042878
     21          1           0       -0.531786   -1.170950   -2.648926
     22         35           0        0.295535   -1.877197   -3.583766
 ---------------------------------------------------------------------
                    Distance matrix (angstroms):
                    1          2          3          4          5
     1  C    0.000000
     2  C    1.380291   0.000000
     3  C    2.394257   1.384359   0.000000
     4  C    2.766357   2.397212   1.383703   0.000000
     5  C    2.397241   2.772066   2.404135   1.392349   0.000000
     6  C    1.384255   2.404182   2.782023   2.414442   1.395607
     7  F    1.372064   2.383612   3.647976   4.138420   3.648309
     8  H    2.138675   1.083278   2.142332   3.378999   3.855341
     9  H    3.377726   2.144032   1.085330   2.143443   3.388495
    10  H    3.852173   3.381478   2.143847   1.085817   2.151620
    11  H    3.382925   3.857449   3.387163   2.151264   1.085386
    12  H    2.141416   3.381865   3.864263   3.400415   2.160439
    13  O    4.160414   4.996845   6.349388   6.926767   6.345837
    14  C    5.363036   6.171703   7.534314   8.129387   7.529513
    15  H    5.990547   6.780635   8.135020   8.732695   8.130026
    16  H    5.990536   6.780625   8.135010   8.732685   8.130016
    17  H    2.832586   3.515991   4.590282   5.042857   4.590178
    18  Br   3.927194   4.406730   5.238445   5.608739   5.238559
    19  H    2.938397   2.857803   4.114986   5.115472   5.162862
    20  Br   4.049195   3.558321   4.553940   5.706097   6.028464
    21  H    2.944610   4.229481   5.163133   5.117361   4.111564
    22  Br   4.056426   5.315362   6.027680   5.708418   4.549764
                    6          7          8          9         10
     6  C    0.000000
     7  F    2.376939   0.000000
     8  H    3.383425   2.619926   0.000000
     9  H    3.867347   4.524758   2.468663   0.000000
    10  H    3.398692   5.224237   4.275703   2.469276   0.000000
    11  H    2.154195   4.527339   4.940726   4.284029   2.477950
    12  H    1.082286   2.607111   4.271671   4.949573   4.299898
    13  O    4.982615   2.788352   4.810347   7.107451   8.012584
    14  C    6.155777   3.990975   5.913096   8.263102   9.215203
    15  H    6.764569   4.641159   6.500502   8.848229   9.812725
    16  H    6.764559   4.641148   6.500492   8.848219   9.812715
    17  H    3.509736   2.251272   3.622307   5.353567   6.037010
    18  Br   4.402618   3.626003   4.521811   5.895948   6.475694
    19  H    4.224406   2.371032   2.260360   4.554590   6.101499
    20  Br   5.312984   3.750577   2.753020   4.688341   6.563467
    21  H    2.844649   2.378027   4.735924   6.171258   6.103300
    22  Br   3.547197   3.757968   5.946303   7.056106   6.565672
                   11         12         13         14         15
    11  H    0.000000
    12  H    2.493076   0.000000
    13  O    7.104476   4.782354   0.000000
    14  C    8.258099   5.881941   1.202623   0.000000
    15  H    8.842873   6.469165   1.996500   1.102004   0.000000
    16  H    8.842863   6.469155   1.996485   1.101987   1.908712
    17  H    5.355435   3.609944   3.265431   4.227970   4.338851
    18  Br   5.897825   4.513489   4.486131   5.285301   5.145255
    19  H    6.171730   4.721694   3.334713   4.277519   5.068319
    20  Br   7.057347   5.935118   4.578835   5.361904   6.145305
    21  H    4.552691   2.238652   3.332767   4.272338   5.063776
    22  Br   4.685341   2.739515   4.577301   5.356089   6.139791
                   16         17         18         19         20
    16  H    0.000000
    17  H    5.223890   0.000000
    18  Br   6.348603   1.427803   0.000000
    19  H    4.607699   3.942714   5.206929   0.000000
    20  Br   5.532869   5.226401   6.383134   1.433816   0.000000
    21  H    4.601273   3.948738   5.212479   4.050324   5.325657
    22  Br   5.525475   5.233180   6.389539   5.326886   6.496436
                   21         22
    21  H    0.000000
    22  Br   1.434284   0.000000
 Stoichiometry    C7H10Br3FO
 Framework group  C1[X(C7H10Br3FO)]
 Deg. of freedom    60
 Full point group                 C1      NOp   1
 Largest Abelian subgroup         C1      NOp   1
 Largest concise Abelian subgroup C1      NOp   1
                         Standard orientation:                         
 ---------------------------------------------------------------------
 Center     Atomic      Atomic             Coordinates (Angstroms)
 Number     Number       Type             X           Y           Z
 ---------------------------------------------------------------------
      1          6           0       -0.005058    0.059691    1.127849
      2          6           0       -1.201414    0.068169    1.816226
      3          6           0       -1.203519    0.109098    3.199978
      4          6           0       -0.006309    0.141509    3.892996
      5          6           0        1.200498    0.132957    3.198605
      6          6           0        1.202620    0.091695    1.803609
      7          9           0       -0.002972    0.019125   -0.243613
      8          1           0       -2.138689    0.042795    1.273674
      9          1           0       -2.144219    0.115765    3.741253
     10          1           0       -0.007960    0.173612    4.978336
     11          1           0        2.139597    0.158380    3.742212
     12          1           0        2.132713    0.084565    1.250239
     13          8           0        0.006134   -0.063265   -3.030733
     14          6           0        0.011469   -0.098786   -4.232820
     15          1           0        0.003684    0.838831   -4.811808
     16          1           0        0.022649   -1.068952   -4.755341
     17          1           0       -0.024407    2.223558   -0.699950
     18         35           0       -0.038756    3.636316   -0.493715
     19          1           0       -2.012821   -1.180160   -0.623104
     20         35           0       -3.228979   -1.890672   -0.354849
     21          1           0        2.037333   -1.143228   -0.619250
     22         35           0        3.267166   -1.829563   -0.347908
 ---------------------------------------------------------------------
 Rotational constants (GHZ):           0.1923914           0.1812865           0.1503245
 Standard basis: 6-311++G(d,p) (5D, 7F)
 There are   430 symmetry adapted cartesian basis functions of A   symmetry.
 There are   412 symmetry adapted basis functions of A   symmetry.
   412 basis functions,   696 primitive gaussians,   430 cartesian basis functions
    87 alpha electrons       87 beta electrons
       nuclear repulsion energy      1567.8032767542 Hartrees.
 NAtoms=   22 NActive=   22 NUniq=   22 SFac= 1.00D+00 NAtFMM=   60 NAOKFM=F Big=F
 Integral buffers will be    131072 words long.
 Raffenetti 2 integral format.
 Two-electron integral symmetry is turned on.
 One-electron integrals computed using PRISM.
 NBasis=   412 RedAO= T EigKep=  5.43D-06  NBF=   412
 NBsUse=   411 1.00D-06 EigRej=  6.80D-07 NBFU=   411
 Initial guess from the checkpoint file:  "model_H3.chk"
 B after Tr=     0.000000    0.000000   -0.000000
         Rot=    0.999894    0.013618    0.001550   -0.005009 Ang=   1.67 deg.
 ExpMin= 3.50D-02 ExpMax= 4.40D+05 ExpMxC= 1.51D+04 IAcc=3 IRadAn=         5 AccDes= 0.00D+00
 Harris functional with IExCor= 1009 and IRadAn=       5 diagonalized for initial guess.
 HarFok:  IExCor= 1009 AccDes= 0.00D+00 IRadAn=         5 IDoV= 1 UseB2=F ITyADJ=14
 ICtDFT=  3500011 ScaDFX=  1.000000  1.000000  1.000000  1.000000
 FoFCou: FMM=F IPFlag=           0 FMFlag=      100000 FMFlg1=           0
         NFxFlg=           0 DoJE=T BraDBF=F KetDBF=T FulRan=T
         wScrn=  0.000000 ICntrl=       500 IOpCl=  0 I1Cent=   200000004 NGrid=           0
         NMat0=    1 NMatS0=      1 NMatT0=    0 NMatD0=    1 NMtDS0=    0 NMtDT0=    0
 Petite list used in FoFCou.
 Requested convergence on RMS density matrix=1.00D-08 within 128 cycles.
 Requested convergence on MAX density matrix=1.00D-06.
 Requested convergence on             energy=1.00D-06.
 No special actions if energy rises.
 SCF Done:  E(RM062X) =  -8170.23879925     A.U. after   14 cycles
            NFock= 14  Conv=0.23D-08     -V/T= 2.0013
 Calling FoFJK, ICntrl=      2127 FMM=F ISym2X=0 I1Cent= 0 IOpClX= 0 NMat=1 NMatS=1 NMatT=0.
 ***** Axes restored to original set *****
 -------------------------------------------------------------------
 Center     Atomic                   Forces (Hartrees/Bohr)
 Number     Number              X              Y              Z
[...]
     20         35           0       -3.388658   -1.992785   -0.202059
     21          1           0        2.262170   -1.216101   -0.529051
     22         35           0        3.490343   -1.852925   -0.195197
 ---------------------------------------------------------------------
 Rotational constants (GHZ):           0.1939624           0.1692502           0.1422778

 **********************************************************************

            Population analysis using the SCF Density.

 **********************************************************************

 Orbital symmetries:
       Occupied  (A) (A) (A) (A) (A) (A) (A) (A) (A) (A) (A) (A)
                 (A) (A) (A) (A) (A) (A) (A) (A) (A) (A) (A) (A)
                 (A) (A) (A) (A) (A) (A) (A) (A) (A) (A) (A) (A)
                 (A) (A) (A) (A) (A) (A) (A) (A) (A) (A) (A) (A)
                 (A) (A) (A) (A) (A) (A) (A) (A) (A) (A) (A) (A)
                 (A) (A) (A) (A) (A) (A) (A) (A) (A) (A) (A) (A)
                 (A) (A) (A) (A) (A) (A) (A) (A) (A) (A) (A) (A)
                 (A) (A) (A)
       Virtual   (A) (A) (A) (A) (A) (A) (A) (A) (A) (A) (A) (A)
                 (A) (A) (A) (A) (A) (A) (A) (A) (A) (A) (A) (A)
                 (A) (A) (A) (A) (A) (A) (A) (A) (A) (A) (A) (A)
                 (A) (A) (A) (A) (A) (A) (A) (A) (A) (A) (A) (A)
                 (A) (A) (A) (A) (A) (A) (A) (A) (A) (A) (A) (A)
                 (A) (A) (A) (A) (A) (A) (A) (A) (A) (A) (A) (A)
                 (A) (A) (A) (A) (A) (A) (A) (A) (A) (A) (A) (A)
                 (A) (A) (A) (A) (A) (A) (A) (A) (A) (A) (A) (A)
                 (A) (A) (A) (A) (A) (A) (A) (A) (A) (A) (A) (A)
                 (A) (A) (A) (A) (A) (A) (A) (A) (A) (A) (A) (A)
                 (A) (A) (A) (A) (A) (A) (A) (A) (A) (A) (A) (A)
                 (A) (A) (A) (A) (A) (A) (A) (A) (A) (A) (A) (A)
                 (A) (A) (A) (A) (A) (A) (A) (A) (A) (A) (A) (A)
                 (A) (A) (A) (A) (A) (A) (A) (A) (A) (A) (A) (A)
                 (A) (A) (A) (A) (A) (A) (A) (A) (A) (A) (A) (A)
                 (A) (A) (A) (A) (A) (A) (A) (A) (A) (A) (A) (A)
                 (A) (A) (A) (A) (A) (A) (A) (A) (A) (A) (A) (A)
                 (A) (A) (A) (A) (A) (A) (A) (A) (A) (A) (A) (A)
                 (A) (A) (A) (A) (A) (A) (A) (A) (A) (A) (A) (A)
                 (A) (A) (A) (A) (A) (A) (A) (A) (A) (A) (A) (A)
                 (A) (A) (A) (A) (A) (A) (A) (A) (A) (A) (A) (A)
                 (A) (A) (A) (A) (A) (A) (A) (A) (A) (A) (A) (A)
                 (A) (A) (A) (A) (A) (A) (A) (A) (A) (A) (A) (A)
                 (A) (A) (A) (A) (A) (A) (A) (A) (A) (A) (A) (A)
                 (A) (A) (A) (A) (A) (A) (A) (A) (A) (A) (A) (A)
                 (A) (A) (A) (A) (A) (A) (A) (A) (A) (A) (A) (A)
                 (A) (A) (A) (A) (A) (A) (A) (A) (A) (A) (A) (A)
 The electronic state is 1-A.
 Alpha  occ. eigenvalues -- -485.34310-485.34280-485.33072 -63.33531 -63.33502
 Alpha  occ. eigenvalues --  -63.32297 -57.16266 -57.16236 -57.16025 -57.16023
 Alpha  occ. eigenvalues --  -57.15996 -57.15994 -57.15024 -57.14794 -57.14793
 Alpha  occ. eigenvalues --  -25.27839 -19.65523 -10.65036 -10.64465 -10.56515
 Alpha  occ. eigenvalues --  -10.56432 -10.56315 -10.56218 -10.55735  -9.02245
 Alpha  occ. eigenvalues --   -9.02216  -9.01010  -6.85022  -6.84992  -6.84031
 Alpha  occ. eigenvalues --   -6.84021  -6.84003  -6.83992  -6.83763  -6.82808
 Alpha  occ. eigenvalues --   -6.82804  -2.88198  -2.88168  -2.87815  -2.87806
 Alpha  occ. eigenvalues --   -2.87785  -2.87776  -2.86946  -2.86945  -2.86941
 Alpha  occ. eigenvalues --   -2.86918  -2.86917  -2.86568  -2.86565  -2.85736
 Alpha  occ. eigenvalues --   -2.85736  -1.39349  -1.20357  -0.98551  -0.88316
 Alpha  occ. eigenvalues --   -0.88264  -0.87025  -0.86862  -0.86425  -0.73584
 Alpha  occ. eigenvalues --   -0.72508  -0.71853  -0.64651  -0.59706  -0.59469
 Alpha  occ. eigenvalues --   -0.59328  -0.58909  -0.54736  -0.53139  -0.51796
 Alpha  occ. eigenvalues --   -0.50409  -0.50207  -0.50050  -0.48777  -0.48740
 Alpha  occ. eigenvalues --   -0.45257  -0.44546  -0.42414  -0.36654  -0.36637
 Alpha  occ. eigenvalues --   -0.36595  -0.36568  -0.35863  -0.35535  -0.35473
 Alpha  occ. eigenvalues --   -0.32787  -0.31932
 Alpha virt. eigenvalues --   -0.02066  -0.00877  -0.00064  -0.00028   0.00695
 Alpha virt. eigenvalues --    0.00781   0.00864   0.01676   0.02169   0.02760
 Alpha virt. eigenvalues --    0.03039   0.03785   0.04177   0.04331   0.05697
 Alpha virt. eigenvalues --    0.05708   0.05813   0.06092   0.06587   0.07274
 Alpha virt. eigenvalues --    0.07579   0.07931   0.08173   0.08475   0.08768
 Alpha virt. eigenvalues --    0.09236   0.09957   0.10582   0.10615   0.11919
 Alpha virt. eigenvalues --    0.11939   0.12376   0.12597   0.13210   0.13405
 Alpha virt. eigenvalues --    0.13778   0.13905   0.14650   0.15243   0.15481
 Alpha virt. eigenvalues --    0.15787   0.16021   0.16849   0.16943   0.16975
 Alpha virt. eigenvalues --    0.17695   0.17726   0.18186   0.19904   0.20135
 Alpha virt. eigenvalues --    0.20915   0.21029   0.21787   0.22367   0.22891
 Alpha virt. eigenvalues --    0.23533   0.24446   0.24990   0.25847   0.27102
 Alpha virt. eigenvalues --    0.28892   0.30382   0.30797   0.31810   0.32060
 Alpha virt. eigenvalues --    0.33040   0.33851   0.34311   0.36425   0.36904
 Alpha virt. eigenvalues --    0.37537   0.37637   0.39987   0.40394   0.42059
 Alpha virt. eigenvalues --    0.43619   0.44687   0.45100   0.45887   0.46790
 Alpha virt. eigenvalues --    0.47329   0.47850   0.48178   0.48409   0.48895
 Alpha virt. eigenvalues --    0.49831   0.50186   0.51695   0.51950   0.52725
 Alpha virt. eigenvalues --    0.53448   0.54697   0.56661   0.57058   0.57904
 Alpha virt. eigenvalues --    0.58105   0.58779   0.59503   0.59972   0.61798
 Alpha virt. eigenvalues --    0.61863   0.62256   0.63381   0.63498   0.64164
 Alpha virt. eigenvalues --    0.64593   0.65909   0.66527   0.67098   0.67852
 Alpha virt. eigenvalues --    0.68653   0.69185   0.69388   0.69871   0.70929
 Alpha virt. eigenvalues --    0.71082   0.72292   0.72837   0.73249   0.74238
 Alpha virt. eigenvalues --    0.75857   0.76059   0.76571   0.77590   0.79831
 Alpha virt. eigenvalues --    0.82815   0.83031   0.83973   0.85669   0.88152
 Alpha virt. eigenvalues --    0.88298   0.89420   0.91383   0.93582   0.93642
 Alpha virt. eigenvalues --    0.95114   0.96171   0.96710   0.97120   1.02343
 Alpha virt. eigenvalues --    1.04598   1.04646   1.05213   1.05797   1.07111
 Alpha virt. eigenvalues --    1.07853   1.12477   1.15416   1.17131   1.18147
 Alpha virt. eigenvalues --    1.22397   1.23543   1.24750   1.32380   1.33065
 Alpha virt. eigenvalues --    1.39714   1.43235   1.44651   1.45773   1.46373
 Alpha virt. eigenvalues --    1.47372   1.48001   1.50190   1.51711   1.52331
 Alpha virt. eigenvalues --    1.54115   1.56104   1.57947   1.59562   1.60119
 Alpha virt. eigenvalues --    1.60705   1.62002   1.64568   1.65412   1.68318
 Alpha virt. eigenvalues --    1.69055   1.69553   1.70401   1.74069   1.76377
 Alpha virt. eigenvalues --    1.76686   1.77934   1.80019   1.85888   1.86304
 Alpha virt. eigenvalues --    1.88422   1.91629   1.94496   1.94740   1.95905
 Alpha virt. eigenvalues --    1.97963   1.98651   2.00244   2.02044   2.02573
 Alpha virt. eigenvalues --    2.03376   2.04053   2.04272   2.04395   2.05730
 Alpha virt. eigenvalues --    2.06545   2.07462   2.07525   2.07857   2.08440
 Alpha virt. eigenvalues --    2.09858   2.10879   2.12395   2.13909   2.16292
 Alpha virt. eigenvalues --    2.23759   2.30610   2.30776   2.34970   2.43767
 Alpha virt. eigenvalues --    2.44215   2.47380   2.49396   2.50473   2.52080
 Alpha virt. eigenvalues --    2.52708   2.59328   2.59613   2.63621   2.65852
 Alpha virt. eigenvalues --    2.67916   2.68583   2.71681   2.72694   2.73767
 Alpha virt. eigenvalues --    2.74138   2.75202   2.75975   2.76107   2.85287
 Alpha virt. eigenvalues --    2.85412   2.86644   2.89098   2.93820   2.94970
 Alpha virt. eigenvalues --    2.95622   2.98503   2.98621   3.14073   3.19091
 Alpha virt. eigenvalues --    3.25819   3.38793   3.39559   3.42991   3.48222
 Alpha virt. eigenvalues --    3.53175   3.55653   3.56097   3.66318   3.72733
 Alpha virt. eigenvalues --    3.79013   3.86716   3.93088   4.02463   4.04221
 Alpha virt. eigenvalues --    4.05151   4.08613   4.15714   4.19081   4.20455
 Alpha virt. eigenvalues --    4.28304   4.28595   4.28636   4.28839   4.29637
 Alpha virt. eigenvalues --    4.29783   4.32686   4.32754   4.34728   4.35091
 Alpha virt. eigenvalues --    4.35365   4.36542   4.49208   4.49472   4.52745
 Alpha virt. eigenvalues --    4.85756   4.93927   5.11162   5.21079   5.79993
 Alpha virt. eigenvalues --    6.52449   6.63430   6.80168   6.81694   6.87794
 Alpha virt. eigenvalues --    6.91538   7.62379   7.63284   7.64944   7.65151
 Alpha virt. eigenvalues --    7.65368   7.66193   7.67294   7.67606   7.68481
 Alpha virt. eigenvalues --   23.68930  23.99500  24.01546  24.05060  24.15387
 Alpha virt. eigenvalues --   24.17019  24.27188  48.33208  48.34676  48.40167
 Alpha virt. eigenvalues --   50.04732  66.94677 290.76875 290.77862 290.79830
 Alpha virt. eigenvalues --  290.80030 290.80115 290.81397 290.83962 290.84737
 Alpha virt. eigenvalues --  290.856571020.883031020.899911020.96876
          Condensed to atoms (all electrons):
               1          2          3          4          5          6
     1  C   13.530132  -1.141379  -2.283770  -0.880486  -2.007167  -0.789542
     2  C   -1.141379  14.628864   0.696588  -0.932081  -0.243202  -7.151704
     3  C   -2.283770   0.696588   7.505339   0.904257  -0.597199  -0.437748
     4  C   -0.880486  -0.932081   0.904257   6.694375   0.830498  -0.787463
     5  C   -2.007167  -0.243202  -0.597199   0.830498   7.322998   0.499365
     6  C   -0.789542  -7.151704  -0.437748  -0.787463   0.499365  14.507390
     7  F    0.332243  -0.199717  -0.003011   0.017979  -0.001254  -0.191289
     8  H   -0.446928   0.391542   0.186891   0.089933   0.080881  -0.132962
     9  H    0.053848   0.001071   0.360495  -0.107887  -0.026764   0.045809
    10  H    0.031898  -0.005330  -0.064651   0.433180  -0.063650  -0.003110
    11  H    0.054223   0.048965  -0.026976  -0.109981   0.364763  -0.005182
    12  H   -0.428443  -0.146446   0.075836   0.092818   0.160439   0.410673
    13  O    0.028180  -0.011974  -0.000231  -0.000068  -0.000057  -0.011191
    14  C   -0.006165   0.001145   0.000760   0.000440   0.000851   0.002434
    15  H    0.001924  -0.000807  -0.000237  -0.000086  -0.000249  -0.001036
    16  H   -0.002916   0.001045   0.000246   0.000038   0.000248   0.001168
    17  H   -0.061615   0.018613  -0.000339  -0.012914  -0.003213   0.009573
    18  Br   0.269375  -0.079855  -0.030231   0.010953  -0.025565  -0.073527
    19  H   -0.056054   0.159066  -0.010316  -0.000730  -0.007680  -0.101489
    20  Br   0.004513  -0.233034   0.096967   0.014489   0.015014   0.047553
    21  H   -0.050782  -0.098316  -0.008803   0.000013  -0.013844   0.153526
    22  Br   0.005436   0.047393   0.015408   0.013351   0.091654  -0.227636
               7          8          9         10         11         12
     1  C    0.332243  -0.446928   0.053848   0.031898   0.054223  -0.428443
     2  C   -0.199717   0.391542   0.001071  -0.005330   0.048965  -0.146446
     3  C   -0.003011   0.186891   0.360495  -0.064651  -0.026976   0.075836
     4  C    0.017979   0.089933  -0.107887   0.433180  -0.109981   0.092818
     5  C   -0.001254   0.080881  -0.026764  -0.063650   0.364763   0.160439
     6  C   -0.191289  -0.132962   0.045809  -0.003110  -0.005182   0.410673
     7  F    9.211112   0.001876  -0.001468   0.001123  -0.001439   0.000589
     8  H    0.001876   0.756822  -0.029613  -0.000075   0.001927  -0.007247
     9  H   -0.001468  -0.029613   0.487411  -0.010325   0.000920   0.001853
    10  H    0.001123  -0.000075  -0.010325   0.500352  -0.010157   0.000048
    11  H   -0.001439   0.001927   0.000920  -0.010157   0.486750  -0.029465
    12  H    0.000589  -0.007247   0.001853   0.000048  -0.029465   0.763518
    13  O    0.012877   0.001906  -0.000005   0.000009  -0.000003   0.001914
    14  C    0.004457   0.000378  -0.000047   0.000014  -0.000048   0.000397
    15  H   -0.000292  -0.000032   0.000004  -0.000002   0.000004  -0.000024
    16  H   -0.000509  -0.000112   0.000001  -0.000001   0.000001  -0.000115
    17  H   -0.023526   0.005949   0.001723  -0.000751   0.001811   0.005302
    18  Br   0.001159  -0.002856  -0.001972   0.001107  -0.002012  -0.002793
    19  H   -0.029665  -0.013444   0.001911   0.000134  -0.000359   0.004146
    20  Br   0.011309   0.097503  -0.006230  -0.000314   0.000349  -0.003584
    21  H   -0.028298   0.004050  -0.000370   0.000135   0.001798  -0.012867
    22  Br   0.010676  -0.003487   0.000357  -0.000301  -0.006095   0.097938
              13         14         15         16         17         18
     1  C    0.028180  -0.006165   0.001924  -0.002916  -0.061615   0.269375
     2  C   -0.011974   0.001145  -0.000807   0.001045   0.018613  -0.079855
     3  C   -0.000231   0.000760  -0.000237   0.000246  -0.000339  -0.030231
     4  C   -0.000068   0.000440  -0.000086   0.000038  -0.012914   0.010953
     5  C   -0.000057   0.000851  -0.000249   0.000248  -0.003213  -0.025565
     6  C   -0.011191   0.002434  -0.001036   0.001168   0.009573  -0.073527
     7  F    0.012877   0.004457  -0.000292  -0.000509  -0.023526   0.001159
     8  H    0.001906   0.000378  -0.000032  -0.000112   0.005949  -0.002856
     9  H   -0.000005  -0.000047   0.000004   0.000001   0.001723  -0.001972
    10  H    0.000009   0.000014  -0.000002  -0.000001  -0.000751   0.001107
    11  H   -0.000003  -0.000048   0.000004   0.000001   0.001811  -0.002012
    12  H    0.001914   0.000397  -0.000024  -0.000115   0.005302  -0.002793
    13  O    8.151286   0.235200  -0.086947  -0.094481   0.011271  -0.005836
    14  C    0.235200   4.956548   0.391517   0.395627  -0.004187   0.000790
    15  H   -0.086947   0.391517   0.703003  -0.124606   0.005416  -0.001221
    16  H   -0.094481   0.395627  -0.124606   0.704904  -0.001869   0.000736
    17  H    0.011271  -0.004187   0.005416  -0.001869   0.654866   0.223029
    18  Br  -0.005836   0.000790  -0.001221   0.000736   0.223029  34.849710
    19  H    0.006934   0.001689  -0.000568   0.000862   0.006853  -0.005690
    20  Br  -0.004456  -0.000800   0.000206  -0.000591  -0.003107   0.002173
    21  H    0.006821   0.001782  -0.000530   0.000787   0.007065  -0.005734
    22  Br  -0.004381  -0.000800   0.000193  -0.000565  -0.003374   0.002288
              19         20         21         22
     1  C   -0.056054   0.004513  -0.050782   0.005436
     2  C    0.159066  -0.233034  -0.098316   0.047393
     3  C   -0.010316   0.096967  -0.008803   0.015408
     4  C   -0.000730   0.014489   0.000013   0.013351
     5  C   -0.007680   0.015014  -0.013844   0.091654
     6  C   -0.101489   0.047553   0.153526  -0.227636
     7  F   -0.029665   0.011309  -0.028298   0.010676
     8  H   -0.013444   0.097503   0.004050  -0.003487
     9  H    0.001911  -0.006230  -0.000370   0.000357
    10  H    0.000134  -0.000314   0.000135  -0.000301
    11  H   -0.000359   0.000349   0.001798  -0.006095
    12  H    0.004146  -0.003584  -0.012867   0.097938
    13  O    0.006934  -0.004456   0.006821  -0.004381
    14  C    0.001689  -0.000800   0.001782  -0.000800
    15  H   -0.000568   0.000206  -0.000530   0.000193
    16  H    0.000862  -0.000591   0.000787  -0.000565
    17  H    0.006853  -0.003107   0.007065  -0.003374
    18  Br  -0.005690   0.002173  -0.005734   0.002288
    19  H    0.666162   0.222214  -0.014935   0.007771
    20  Br   0.222214  34.856293   0.007762  -0.003325
    21  H   -0.014935   0.007762   0.664888   0.223667
    22  Br   0.007771  -0.003325   0.223667  34.853890
 Mulliken charges:
               1
     1  C   -0.156525
     2  C    0.249552
     3  C   -0.379275
     4  C   -0.270627
     5  C   -0.376867
     6  C    0.236391
     7  F   -0.124932
     8  H    0.017095
     9  H    0.229278
    10  H    0.190665
    11  H    0.230205
    12  H    0.015515
    13  O   -0.236767
    14  C    0.018018
    15  H    0.114371
    16  H    0.120100
    17  H    0.163424
    18  Br  -0.124029
    19  H    0.163190
    20  Br  -0.120905
    21  H    0.162183
    22  Br  -0.120059
 Sum of Mulliken charges =  -0.00000
 Mulliken charges with hydrogens summed into heavy atoms:
               1
     1  C   -0.156525
     2  C    0.266647
     3  C   -0.149997
     4  C   -0.079962
     5  C   -0.146662
     6  C    0.251905
     7  F   -0.124932
    13  O   -0.236767
    14  C    0.252489
    18  Br   0.039395
    20  Br   0.042285
    22  Br   0.042124
 Electronic spatial extent (au):  <R**2>=           7947.2914
 Charge=             -0.0000 electrons
 Dipole moment (field-independent basis, Debye):
    X=              0.0173    Y=             -0.4376    Z=             -0.9510  Tot=              1.0470
 Quadrupole moment (field-independent basis, Debye-Ang):
   XX=           -113.2638   YY=           -121.5566   ZZ=            -83.8227
   XY=              0.1844   XZ=             -0.2555   YZ=              4.8044
 Traceless Quadrupole moment (field-independent basis, Debye-Ang):
   XX=             -7.0495   YY=            -15.3422   ZZ=             22.3917
   XY=              0.1844   XZ=             -0.2555   YZ=              4.8044
 Octapole moment (field-independent basis, Debye-Ang**2):
  XXX=             -0.1589  YYY=            -20.8013  ZZZ=           -114.3163  XYY=              0.5705
  XXY=              1.6345  XXZ=              1.5597  XZZ=              0.1611  YZZ=             -6.3433
  YYZ=            -26.0182  XYZ=              0.5998
 Hexadecapole moment (field-independent basis, Debye-Ang**3):
 XXXX=          -3044.4679 YYYY=          -2428.6490 ZZZZ=          -2053.5265 XXXY=              0.4251
 XXXZ=              2.2561 YYYX=             -0.8854 YYYZ=            -63.9260 ZZZX=             -1.8826
 ZZZY=             37.5172 XXYY=           -922.3819 XXZZ=           -940.5695 YYZZ=           -891.7117
 XXYZ=            -27.3052 YYXZ=              0.3895 ZZXY=              0.9677
 N-N= 1.546101271481D+03 E-N=-2.260129161857D+04  KE= 8.159559073444D+03
 1\1\GINC-R820\POpt\RM062X\6-311++G(d,p)\C7H10Br3F1O1\ZJXU\28-Mar-2024\
 1\\# m062x 6-311++G(d,p) opt=z-matrix\\test\\0,1\C\C,1,d1\C,2,d2,1,120
 .\C,3,d3,2,120.,1,0.,0\C,4,d4,3,120.,2,0.,0\C,5,d5,4,120.,3,0.,0\F,1,d
 6,2,120.,3,180.,0\H,2,d7,3,120.,4,180.,0\H,3,d8,4,120.,5,180.,0\H,4,d9
 ,5,120.,6,180.,0\H,5,d10,6,120.,1,180.,0\H,6,d11,1,120.,2,180.,0\O,7,d
 12,1,179.9,3,180.,0\C,13,d13,1,179.9,2,180.,0\H,14,d14,1,120.,2,90.,0\
 H,14,d15,1,120.,2,-90.,0\H,7,d16,1,100.,2,90.,0\Br,17,d17,7,160.,1,0.,
 0\H,7,d18,1,100.,2,-30.,0\Br,19,d19,7,160.,1,0.,0\H,7,d20,1,100.,2,-15
 0.,0\Br,21,d21,7,160.,1,0.,0\\d1=1.37966425\d2=1.38374957\d3=1.3869939
 8\d4=1.39340986\d5=1.39620994\d6=1.36097507\d7=1.0825056\d8=1.08259195
 \d9=1.08300783\d10=1.08251597\d11=1.08190569\d12=2.773553\d13=1.200420
 86\d14=1.1029393\d15=1.10303145\d16=2.10884382\d17=1.42398817\d18=2.59
 301793\d19=1.42319093\d20=2.62798612\d21=1.42317025\\Version=ES64L-G16
 RevB.01\State=1-A\HF=-8170.2398734\RMSD=5.354e-09\RMSF=3.327e-03\Dipol
 e=-0.3388634,-0.1246681,-0.1982471\Quadrupole=11.4493881,-11.8580127,0
 .4086246,0.0227152,9.7077475,0.0011202\PG=C01 [X(C7H10Br3F1O1)]\\@


 FORGIVE MY NONSENSE AS I ALSO FORGIVE THOSE WHO THINK THEY TALK SENSE

                                                       -- ROBERT FROST
 Job cpu time:       0 days  4 hours 54 minutes 40.8 seconds.
 Elapsed time:       0 days  2 hours 27 minutes 21.8 seconds.
 File lengths (MBytes):  RWF=    105 Int=      0 D2E=      0 Chk=     13 Scr=      1
 Normal termination of Gaussian 16 at Thu Mar 28 12:34:43 2024.
