 Entering Gaussian System, Link 0=g16
 Input=model_H1.gjf
 Output=model_H1.log
 Initial command:
 /home/zjxu/prog/g16/l1.exe "/home/zjxu/zjhan/5_model/HCl/vacuum_new/Gau-44158.inp" -scrdir="/home/zjxu/zjhan/5_model/HCl/vacuum_new/"
 Entering Link 1 = /home/zjxu/prog/g16/l1.exe PID=     44159.
  
 Copyright (c) 1988-2017, Gaussian, Inc.  All Rights Reserved.
  
 This is part of the Gaussian(R) 16 program.  It is based on
 the Gaussian(R) 09 system (copyright 2009, Gaussian, Inc.),
 the Gaussian(R) 03 system (copyright 2003, Gaussian, Inc.),
 the Gaussian(R) 98 system (copyright 1998, Gaussian, Inc.),
 the Gaussian(R) 94 system (copyright 1995, Gaussian, Inc.),
 the Gaussian 92(TM) system (copyright 1992, Gaussian, Inc.),
 the Gaussian 90(TM) system (copyright 1990, Gaussian, Inc.),
 the Gaussian 88(TM) system (copyright 1988, Gaussian, Inc.),
 the Gaussian 86(TM) system (copyright 1986, Carnegie Mellon
 University), and the Gaussian 82(TM) system (copyright 1983,
 Carnegie Mellon University). Gaussian is a federally registered
 trademark of Gaussian, Inc.
  
 This software contains proprietary and confidential information,
 including trade secrets, belonging to Gaussian, Inc.
  
 This software is provided under written license and may be
 used, copied, transmitted, or stored only in accord with that
 written license.
  
 The following legend is applicable only to US Government
 contracts under FAR:
  
                    RESTRICTED RIGHTS LEGEND
  
 Use, reproduction and disclosure by the US Government is
 subject to restrictions as set forth in subparagraphs (a)
 and (c) of the Commercial Computer Software - Restricted
 Rights clause in FAR 52.227-19.
  
 Gaussian, Inc.
 340 Quinnipiac St., Bldg. 40, Wallingford CT 06492
  
  
 ---------------------------------------------------------------
 Warning -- This program may not be used in any manner that
 competes with the business of Gaussian, Inc. or will provide
 assistance to any competitor of Gaussian, Inc.  The licensee
 of this program is prohibited from giving any competitor of
 Gaussian, Inc. access to this program.  By using this program,
 the user acknowledges that Gaussian, Inc. is engaged in the
 business of creating and licensing software in the field of
 computational chemistry and represents and warrants to the
 licensee that it is not a competitor of Gaussian, Inc. and that
 it will not use this program in any manner prohibited above.
 ---------------------------------------------------------------
  

 Cite this work as:
 Gaussian 16, Revision B.01,
 M. J. Frisch, G. W. Trucks, H. B. Schlegel, G. E. Scuseria, 
 M. A. Robb, J. R. Cheeseman, G. Scalmani, V. Barone, 
 G. A. Petersson, H. Nakatsuji, X. Li, M. Caricato, A. V. Marenich, 
 J. Bloino, B. G. Janesko, R. Gomperts, B. Mennucci, H. P. Hratchian, 
 J. V. Ortiz, A. F. Izmaylov, J. L. Sonnenberg, D. Williams-Young, 
 F. Ding, F. Lipparini, F. Egidi, J. Goings, B. Peng, A. Petrone, 
 T. Henderson, D. Ranasinghe, V. G. Zakrzewski, J. Gao, N. Rega, 
 G. Zheng, W. Liang, M. Hada, M. Ehara, K. Toyota, R. Fukuda, 
 J. Hasegawa, M. Ishida, T. Nakajima, Y. Honda, O. Kitao, H. Nakai, 
 T. Vreven, K. Throssell, J. A. Montgomery, Jr., J. E. Peralta, 
 F. Ogliaro, M. J. Bearpark, J. J. Heyd, E. N. Brothers, K. N. Kudin, 
 V. N. Staroverov, T. A. Keith, R. Kobayashi, J. Normand, 
 K. Raghavachari, A. P. Rendell, J. C. Burant, S. S. Iyengar, 
 J. Tomasi, M. Cossi, J. M. Millam, M. Klene, C. Adamo, R. Cammi, 
 J. W. Ochterski, R. L. Martin, K. Morokuma, O. Farkas, 
 J. B. Foresman, and D. J. Fox, Gaussian, Inc., Wallingford CT, 2016.
 
 ******************************************
 Gaussian 16:  ES64L-G16RevB.01 20-Dec-2017
                 9-Apr-2024 
 ******************************************
 %mem=2GB
 %nproc=2
 Will use up to    2 processors via shared memory.
 %chk=model_H1
 ----------------------------------------------------------------
 # m062x 6-311++G(d,p) opt=(maxstep=5,notrust,maxcyc=50,z-matrix)
 ----------------------------------------------------------------
 1/6=50,8=5,9=1,10=7,18=40,26=3,38=1/1,3;
 2/12=2,17=6,18=5,29=3,40=1/2;
 3/5=4,6=6,7=1111,11=2,25=1,30=1,71=1,74=-55/1,2,3;
 4//1;
 5/5=2,38=5/2;
 6/7=2,8=2,9=2,10=2,28=1/1;
 7/29=1/1,2,3,16;
 1/6=50,8=5,9=1,10=7,18=40,26=3/3(2);
 2/29=3/2;
 99//99;
 2/29=3/2;
 3/5=4,6=6,7=1111,11=2,25=1,30=1,71=1,74=-55/1,2,3;
 4/5=5,16=3,69=1/1;
 5/5=2,38=5/2;
 7//1,2,3,16;
 1/6=50,8=5,9=1,18=40,26=3/3(-5);
 2/29=3/2;
 6/7=2,8=2,9=2,10=2,19=2,28=1/1;
 99/9=1/99;
 ----
 test
 ----
 Symbolic Z-matrix:
 Charge =  0 Multiplicity = 1
 C1
 C2                   1    d1
 C3                   2    d2       1     120. 
 C4                   3    d3       2     120.     1     0.       0
 C5                   4    d4       3     120.     2     0.       0
 C6                   5    d5       4     120.     3     0.       0
 F7                   1    d6       2     120.     3     180.     0
 H8                   2    d7       3     120.     4     180.     0
 H9                   3    d8       4     120.     5     180.     0
 H10                  4    d9       5     120.     6     180.     0
 H11                  5    d10      6     120.     1     180.     0
 H12                  6    d11      1     120.     2     180.     0
 O13                  7    d12      1     179.9    3     180.     0
 C14                  13   d13      1     179.9    2     180.     0
 H15                  14   d14      1     120.     2     90.      0
 H16                  14   d15      1     120.     2    -90.      0
 H17                  7    d16      1     100.     2     90.      0
 Cl18                 17   d17      7     160.     1     0.       0
       Variables:
  d1                    1.3                      
  d2                    1.3                      
  d3                    1.3                      
  d4                    1.3                      
  d5                    1.3                      
  d6                    1.4                      
  d7                    1.                       
  d8                    1.                       
  d9                    1.                       
  d10                   1.                       
  d11                   1.                       
  d12                   2.8                      
  d13                   1.2                      
  d14                   1.                       
  d15                   1.                       
  d16                   2.3                      
  d17                   0.9                      
 

 GradGradGradGradGradGradGradGradGradGradGradGradGradGradGradGradGradGrad
 Berny optimization.
 Initialization pass.
                       ----------------------------
                       !    Initial Parameters    !
                       ! (Angstroms and Degrees)  !
 ----------------------                            ----------------------
 !      Name          Value   Derivative information (Atomic Units)     !
 ------------------------------------------------------------------------
 !       d1          1.3      estimate D2E/DX2                          !
 !       d2          1.3      estimate D2E/DX2                          !
 !       d3          1.3      estimate D2E/DX2                          !
 !       d4          1.3      estimate D2E/DX2                          !
 !       d5          1.3      estimate D2E/DX2                          !
 !       d6          1.4      estimate D2E/DX2                          !
 !       d7          1.0      estimate D2E/DX2                          !
 !       d8          1.0      estimate D2E/DX2                          !
 !       d9          1.0      estimate D2E/DX2                          !
 !       d10         1.0      estimate D2E/DX2                          !
 !       d11         1.0      estimate D2E/DX2                          !
 !       d12         2.8      estimate D2E/DX2                          !
 !       d13         1.2      estimate D2E/DX2                          !
 !       d14         1.0      estimate D2E/DX2                          !
 !       d15         1.0      estimate D2E/DX2                          !
 !       d16         2.3      estimate D2E/DX2                          !
 !       d17         0.9      estimate D2E/DX2                          !
 ------------------------------------------------------------------------
 Trust Radius=5.00D-02 FncErr=1.00D-07 GrdErr=1.00D-06 EigMax=2.50D+02 EigMin=1.00D-04
 Number of steps in this run=     50 maximum allowed number of steps=    100.
 GradGradGradGradGradGradGradGradGradGradGradGradGradGradGradGradGradGrad

 ---------------------------------------------------------------------------------------------------
                            Z-MATRIX (ANGSTROMS AND DEGREES)
   CD    Cent   Atom    N1       Length/X        N2       Alpha/Y        N3        Beta/Z          J
 ---------------------------------------------------------------------------------------------------
      1      1  C 
      2      2  C        1   1.300000(     1)
      3      3  C        2   1.300000(     2)      1  120.000(    18)
      4      4  C        3   1.300000(     3)      2  120.000(    19)      1    0.000(    34)      0
      5      5  C        4   1.300000(     4)      3  120.000(    20)      2    0.000(    35)      0
      6      6  C        5   1.300000(     5)      4  120.000(    21)      3    0.000(    36)      0
      7      7  F        1   1.400000(     6)      2  120.000(    22)      3  180.000(    37)      0
      8      8  H        2   1.000000(     7)      3  120.000(    23)      4  180.000(    38)      0
      9      9  H        3   1.000000(     8)      4  120.000(    24)      5  180.000(    39)      0
     10     10  H        4   1.000000(     9)      5  120.000(    25)      6  180.000(    40)      0
     11     11  H        5   1.000000(    10)      6  120.000(    26)      1  180.000(    41)      0
     12     12  H        6   1.000000(    11)      1  120.000(    27)      2  180.000(    42)      0
     13     13  O        7   2.800000(    12)      1  179.900(    28)      3  180.000(    43)      0
     14     14  C       13   1.200000(    13)      1  179.900(    29)      2  180.000(    44)      0
     15     15  H       14   1.000000(    14)      1  120.000(    30)      2   90.000(    45)      0
     16     16  H       14   1.000000(    15)      1  120.000(    31)      2  -90.000(    46)      0
     17     17  H        7   2.300000(    16)      1  100.000(    32)      2   90.000(    47)      0
     18     18  Cl      17   0.900000(    17)      7  160.000(    33)      1    0.000(    48)      0
 ---------------------------------------------------------------------------------------------------
                         Z-Matrix orientation:                         
 ---------------------------------------------------------------------
 Center     Atomic      Atomic             Coordinates (Angstroms)
 Number     Number       Type             X           Y           Z
 ---------------------------------------------------------------------
      1          6           0        0.000000    0.000000    0.000000
      2          6           0        0.000000    0.000000    1.300000
      3          6           0        1.125833    0.000000    1.950000
      4          6           0        2.251666    0.000000    1.300000
      5          6           0        2.251666    0.000000   -0.000000
      6          6           0        1.125833    0.000000   -0.650000
      7          9           0       -1.212436   -0.000000   -0.700000
      8          1           0       -0.866025   -0.000000    1.800000
      9          1           0        1.125833   -0.000000    2.950000
     10          1           0        3.117691   -0.000000    1.800000
     11          1           0        3.117691   -0.000000   -0.500000
     12          1           0        1.125833   -0.000000   -1.650000
     13          8           0       -3.634860   -0.000000   -2.104230
     14          6           0       -4.672340   -0.000000   -2.707251
     15          1           0       -5.104965    0.866025   -2.957922
     16          1           0       -5.104965   -0.866025   -2.957922
     17          1           0       -1.558318    2.265058   -0.899695
     18         17           0       -1.422973    3.151385   -0.821554
 ---------------------------------------------------------------------
                    Distance matrix (angstroms):
                    1          2          3          4          5
     1  C    0.000000
     2  C    1.300000   0.000000
     3  C    2.251666   1.300000   0.000000
     4  C    2.600000   2.251666   1.300000   0.000000
     5  C    2.251666   2.600000   2.251666   1.300000   0.000000
     6  C    1.300000   2.251666   2.600000   2.251666   1.300000
     7  F    1.400000   2.338803   3.534119   4.000000   3.534119
     8  H    1.997498   1.000000   1.997498   3.157531   3.600000
     9  H    3.157531   1.997498   1.000000   1.997498   3.157531
    10  H    3.600000   3.157531   1.997498   1.000000   1.997498
    11  H    3.157531   3.600000   3.157531   1.997498   1.000000
    12  H    1.997498   3.157531   3.600000   3.157531   1.997498
    13  O    4.199999   4.980059   6.253077   6.799997   6.251317
    14  C    5.399997   6.155390   7.436988   7.999995   7.434452
    15  H    5.963218   6.703772   7.978755   8.543999   7.976172
    16  H    5.963218   6.703772   7.978755   8.543999   7.976172
    17  H    2.892800   3.521009   4.522822   4.948245   4.522822
    18  Cl   3.554016   4.056731   4.910107   5.285375   4.910107
                    6          7          8          9         10
     6  C    0.000000
     7  F    2.338803   0.000000
     8  H    3.157531   2.523886   0.000000
     9  H    3.600000   4.334743   2.300000   0.000000
    10  H    3.157531   5.000000   3.983717   2.300000   0.000000
    11  H    1.997498   4.334743   4.600000   3.983717   2.300000
    12  H    1.000000   2.523886   3.983717   4.600000   3.983717
    13  O    4.977849   2.800000   4.786382   6.943301   7.799997
    14  C    6.152324   3.999999   5.899436   8.100821   8.999995
    15  H    6.700697   4.582575   6.430896   8.629970   9.539387
    16  H    6.700697   4.582575   6.430896   8.629970   9.539387
    17  H    3.521009   2.300000   3.591394   5.211076   5.855246
    18  Cl   4.056731   3.160748   4.136902   5.536448   6.117303
                   11         12         13         14         15
    11  H    0.000000
    12  H    2.300000   0.000000
    13  O    6.940497   4.782313   0.000000
    14  C    8.096700   5.893776   1.200000   0.000000
    15  H    8.625744   6.425224   1.907878   1.000000   0.000000
    16  H    8.625744   6.425224   1.907878   1.000000   1.732051
    17  H    5.211076   3.591394   3.300517   4.253807   4.332700
    18  Cl   5.536448   4.136902   4.058193   4.903618   4.831563
                   16         17         18
    16  H    0.000000
    17  H    5.159329   0.000000
    18  Cl   5.853266   0.900000   0.000000
 Stoichiometry    C7H8ClFO
 Framework group  C1[X(C7H8ClFO)]
 Deg. of freedom    48
 Full point group                 C1      NOp   1
 Largest Abelian subgroup         C1      NOp   1
 Largest concise Abelian subgroup C1      NOp   1
                         Standard orientation:                         
 ---------------------------------------------------------------------
 Center     Atomic      Atomic             Coordinates (Angstroms)
 Number     Number       Type             X           Y           Z
 ---------------------------------------------------------------------
      1          6           0       -0.845935   -0.562559   -0.001337
      2          6           0       -1.491799   -0.478897   -1.126442
      3          6           0       -2.781420   -0.314963   -1.124989
      4          6           0       -3.425178   -0.234691    0.001569
      5          6           0       -2.779314   -0.318352    1.126674
      6          6           0       -1.489692   -0.482286    1.125221
      7          9           0        0.542888   -0.739103   -0.002902
      8          1           0       -0.996601   -0.540645   -1.993025
      9          1           0       -3.278239   -0.250609   -1.990454
     10          1           0       -4.417194   -0.108588    0.002687
     11          1           0       -3.274512   -0.256604    1.993257
     12          1           0       -0.992874   -0.546641    1.990686
     13          8           0        3.320535   -1.092198   -0.001145
     14          6           0        4.510953   -1.243526    0.001004
     15          1           0        5.116171   -0.447468    0.002412
     16          1           0        4.897752   -2.165690    0.000030
     17          1           0        1.224725    1.457506   -0.000234
     18         17           0        1.181459    2.356465    0.001159
 ---------------------------------------------------------------------
 Rotational constants (GHZ):           1.4908804           0.4880710           0.4139825
 Standard basis: 6-311++G(d,p) (5D, 7F)
 There are   294 symmetry adapted cartesian basis functions of A   symmetry.
 There are   284 symmetry adapted basis functions of A   symmetry.
   284 basis functions,   449 primitive gaussians,   294 cartesian basis functions
    42 alpha electrons       42 beta electrons
       nuclear repulsion energy       556.5025655466 Hartrees.
 NAtoms=   18 NActive=   18 NUniq=   18 SFac= 1.00D+00 NAtFMM=   60 NAOKFM=F Big=F
 Integral buffers will be    131072 words long.
 Raffenetti 2 integral format.
 Two-electron integral symmetry is turned on.
 One-electron integrals computed using PRISM.
 NBasis=   284 RedAO= T EigKep=  4.19D-06  NBF=   284
 NBsUse=   283 1.00D-06 EigRej=  5.62D-07 NBFU=   283
 ExpMin= 3.60D-02 ExpMax= 1.06D+05 ExpMxC= 3.62D+03 IAcc=3 IRadAn=         5 AccDes= 0.00D+00
 Harris functional with IExCor= 1009 and IRadAn=       5 diagonalized for initial guess.
 HarFok:  IExCor= 1009 AccDes= 0.00D+00 IRadAn=         5 IDoV= 1 UseB2=F ITyADJ=14
 ICtDFT=  3500011 ScaDFX=  1.000000  1.000000  1.000000  1.000000
 FoFCou: FMM=F IPFlag=           0 FMFlag=      100000 FMFlg1=           0
         NFxFlg=           0 DoJE=T BraDBF=F KetDBF=T FulRan=T
         wScrn=  0.000000 ICntrl=       500 IOpCl=  0 I1Cent=   200000004 NGrid=           0
         NMat0=    1 NMatS0=      1 NMatT0=    0 NMatD0=    1 NMtDS0=    0 NMtDT0=    0
 Petite list used in FoFCou.
 Requested convergence on RMS density matrix=1.00D-08 within 128 cycles.
 Requested convergence on MAX density matrix=1.00D-06.
 Requested convergence on             energy=1.00D-06.
 No special actions if energy rises.
 SCF Done:  E(RM062X) =  -906.440021327     A.U. after   14 cycles
            NFock= 14  Conv=0.43D-08     -V/T= 1.9985

 **********************************************************************

            Population analysis using the SCF Density.

 **********************************************************************

 Orbital symmetries:
       Occupied  (A) (A) (A) (A) (A) (A) (A) (A) (A) (A) (A) (A)
                 (A) (A) (A) (A) (A) (A) (A) (A) (A) (A) (A) (A)
                 (A) (A) (A) (A) (A) (A) (A) (A) (A) (A) (A) (A)
                 (A) (A) (A) (A) (A) (A)
       Virtual   (A) (A) (A) (A) (A) (A) (A) (A) (A) (A) (A) (A)
                 (A) (A) (A) (A) (A) (A) (A) (A) (A) (A) (A) (A)
                 (A) (A) (A) (A) (A) (A) (A) (A) (A) (A) (A) (A)
                 (A) (A) (A) (A) (A) (A) (A) (A) (A) (A) (A) (A)
                 (A) (A) (A) (A) (A) (A) (A) (A) (A) (A) (A) (A)
                 (A) (A) (A) (A) (A) (A) (A) (A) (A) (A) (A) (A)
                 (A) (A) (A) (A) (A) (A) (A) (A) (A) (A) (A) (A)
                 (A) (A) (A) (A) (A) (A) (A) (A) (A) (A) (A) (A)
                 (A) (A) (A) (A) (A) (A) (A) (A) (A) (A) (A) (A)
                 (A) (A) (A) (A) (A) (A) (A) (A) (A) (A) (A) (A)
                 (A) (A) (A) (A) (A) (A) (A) (A) (A) (A) (A) (A)
                 (A) (A) (A) (A) (A) (A) (A) (A) (A) (A) (A) (A)
                 (A) (A) (A) (A) (A) (A) (A) (A) (A) (A) (A) (A)
                 (A) (A) (A) (A) (A) (A) (A) (A) (A) (A) (A) (A)
                 (A) (A) (A) (A) (A) (A) (A) (A) (A) (A) (A) (A)
                 (A) (A) (A) (A) (A) (A) (A) (A) (A) (A) (A) (A)
                 (A) (A) (A) (A) (A) (A) (A) (A) (A) (A) (A) (A)
                 (A) (A) (A) (A) (A) (A) (A) (A) (A) (A) (A) (A)
                 (A) (A) (A) (A) (A) (A) (A) (A) (A) (A) (A) (A)
                 (A) (A) (A) (A) (A) (A) (A) (A) (A) (A) (A) (A)
                 (A)
 The electronic state is 1-A.
 Alpha  occ. eigenvalues -- -102.63189 -25.23595 -19.63539 -10.61455 -10.60662
 Alpha  occ. eigenvalues --  -10.52105 -10.52102 -10.51970 -10.51963 -10.51323
 Alpha  occ. eigenvalues --   -9.79678  -7.52399  -7.51226  -7.51225  -1.34100
 Alpha  occ. eigenvalues --   -1.18614  -1.02803  -1.02092  -0.89080  -0.88052
 Alpha  occ. eigenvalues --   -0.75222  -0.73472  -0.71921  -0.65851  -0.60531
 Alpha  occ. eigenvalues --   -0.58451  -0.58056  -0.57403  -0.54768  -0.53703
 Alpha  occ. eigenvalues --   -0.52906  -0.52362  -0.48789  -0.47125  -0.46956
 Alpha  occ. eigenvalues --   -0.44308  -0.41828  -0.39132  -0.39125  -0.34616
 Alpha  occ. eigenvalues --   -0.33572  -0.32284
 Alpha virt. eigenvalues --   -0.00678  -0.00034   0.00438   0.01386   0.02162
 Alpha virt. eigenvalues --    0.02510   0.02817   0.03551   0.03674   0.04264
 Alpha virt. eigenvalues --    0.04985   0.06900   0.07213   0.07560   0.07655
 Alpha virt. eigenvalues --    0.08656   0.09582   0.11203   0.11444   0.11540
 Alpha virt. eigenvalues --    0.11995   0.12416   0.12872   0.13414   0.13836
 Alpha virt. eigenvalues --    0.14448   0.14714   0.14966   0.15342   0.15691
 Alpha virt. eigenvalues --    0.15972   0.16790   0.17420   0.17481   0.18429
 Alpha virt. eigenvalues --    0.18556   0.19642   0.20953   0.21193   0.21854
 Alpha virt. eigenvalues --    0.23093   0.24045   0.24554   0.25795   0.26552
 Alpha virt. eigenvalues --    0.26719   0.27729   0.30135   0.31571   0.32709
 Alpha virt. eigenvalues --    0.33588   0.34243   0.35025   0.35970   0.36606
 Alpha virt. eigenvalues --    0.37986   0.40155   0.40484   0.40980   0.42638
 Alpha virt. eigenvalues --    0.43208   0.43994   0.45924   0.47748   0.50733
 Alpha virt. eigenvalues --    0.50878   0.51833   0.53664   0.54740   0.55305
 Alpha virt. eigenvalues --    0.56913   0.58323   0.59329   0.59427   0.60051
 Alpha virt. eigenvalues --    0.60495   0.61786   0.62233   0.64433   0.64952
 Alpha virt. eigenvalues --    0.65410   0.66359   0.67858   0.70429   0.70717
 Alpha virt. eigenvalues --    0.72353   0.74570   0.75090   0.76475   0.79181
 Alpha virt. eigenvalues --    0.80717   0.81462   0.82029   0.85260   0.85794
 Alpha virt. eigenvalues --    0.89120   0.90002   0.91287   0.92584   0.94632
 Alpha virt. eigenvalues --    0.96754   0.99518   1.00426   1.01451   1.02318
 Alpha virt. eigenvalues --    1.02564   1.05298   1.06405   1.07803   1.08308
 Alpha virt. eigenvalues --    1.10808   1.11860   1.16318   1.17279   1.18265
 Alpha virt. eigenvalues --    1.20282   1.24016   1.24186   1.27148   1.27984
 Alpha virt. eigenvalues --    1.33868   1.34954   1.35172   1.42493   1.51491
 Alpha virt. eigenvalues --    1.52183   1.52563   1.55188   1.57577   1.61072
 Alpha virt. eigenvalues --    1.62232   1.63389   1.65132   1.67823   1.68202
 Alpha virt. eigenvalues --    1.70194   1.72337   1.72596   1.76574   1.76650
 Alpha virt. eigenvalues --    1.79094   1.81788   1.82829   1.84819   1.85779
 Alpha virt. eigenvalues --    1.86312   1.90130   1.92708   1.94316   1.96900
 Alpha virt. eigenvalues --    1.98993   2.04292   2.04693   2.05816   2.06032
 Alpha virt. eigenvalues --    2.07556   2.11818   2.16247   2.17115   2.17572
 Alpha virt. eigenvalues --    2.19221   2.20427   2.21922   2.24862   2.30205
 Alpha virt. eigenvalues --    2.34361   2.35977   2.38911   2.41177   2.46576
 Alpha virt. eigenvalues --    2.48096   2.50652   2.51313   2.58206   2.63490
 Alpha virt. eigenvalues --    2.66569   2.71018   2.71114   2.74668   2.76669
 Alpha virt. eigenvalues --    2.76801   2.78712   2.79164   2.80925   2.86362
 Alpha virt. eigenvalues --    2.86660   2.88120   2.89149   2.90493   2.97061
 Alpha virt. eigenvalues --    2.98385   2.98944   3.03546   3.08471   3.11921
 Alpha virt. eigenvalues --    3.24470   3.27423   3.35038   3.40292   3.42294
 Alpha virt. eigenvalues --    3.47873   3.55467   3.60182   3.62029   3.64831
 Alpha virt. eigenvalues --    3.75388   3.75777   3.87853   3.90465   3.99563
 Alpha virt. eigenvalues --    4.00206   4.06532   4.09378   4.14500   4.18903
 Alpha virt. eigenvalues --    4.19774   4.26475   4.26767   4.36670   4.95978
 Alpha virt. eigenvalues --    4.96845   5.11723   5.24182   5.81785   6.53413
 Alpha virt. eigenvalues --    6.62750   6.90042  10.32440  23.73247  24.17381
 Alpha virt. eigenvalues --   24.27221  24.31933  24.54634  24.57685  24.73122
 Alpha virt. eigenvalues --   25.92453  26.04811  27.11510  50.07038  66.98292
 Alpha virt. eigenvalues --  216.53636
          Condensed to atoms (all electrons):
               1          2          3          4          5          6
     1  C   10.631217  -1.039370  -1.234606   0.017506  -1.233594  -1.036118
     2  C   -1.039370  12.605101   0.794257  -0.704131   0.227949  -6.211097
     3  C   -1.234606   0.794257   5.779998   0.411389  -0.146638   0.223814
     4  C    0.017506  -0.704131   0.411389   6.552684   0.410492  -0.697917
     5  C   -1.233594   0.227949  -0.146638   0.410492   5.780105   0.790027
     6  C   -1.036118  -6.211097   0.223814  -0.697917   0.790027  12.604071
     7  F    0.554708  -0.270000  -0.044949   0.019402  -0.045187  -0.270513
     8  H   -0.171808   0.650332  -0.038346  -0.011066   0.020143  -0.115474
     9  H    0.027620  -0.078435   0.421943  -0.117657  -0.009867   0.085655
    10  H    0.029311  -0.019107  -0.062337   0.487324  -0.062426  -0.018874
    11  H    0.027665   0.085757  -0.009833  -0.117708   0.422096  -0.078718
    12  H   -0.171576  -0.114846   0.020090  -0.011095  -0.038479   0.649672
    13  O    0.040802  -0.012438  -0.000391  -0.001192  -0.000364  -0.012359
    14  C   -0.000778  -0.001294  -0.000156   0.000489  -0.000173  -0.001471
    15  H    0.004632  -0.001685  -0.000569   0.000194  -0.000569  -0.001686
    16  H   -0.003817   0.001253   0.000443  -0.000049   0.000443   0.001251
    17  H   -0.071481   0.009955   0.010774   0.020701   0.011013   0.010611
    18  Cl   0.031736   0.007781  -0.005437  -0.021052  -0.005611   0.007548
               7          8          9         10         11         12
     1  C    0.554708  -0.171808   0.027620   0.029311   0.027665  -0.171576
     2  C   -0.270000   0.650332  -0.078435  -0.019107   0.085757  -0.114846
     3  C   -0.044949  -0.038346   0.421943  -0.062337  -0.009833   0.020090
     4  C    0.019402  -0.011066  -0.117657   0.487324  -0.117708  -0.011095
     5  C   -0.045187   0.020143  -0.009867  -0.062426   0.422096  -0.038479
     6  C   -0.270513  -0.115474   0.085655  -0.018874  -0.078718   0.649672
     7  F    9.275572  -0.031648  -0.000300   0.001302  -0.000299  -0.031574
     8  H   -0.031648   0.520793  -0.015205   0.000107   0.003218  -0.000945
     9  H   -0.000300  -0.015205   0.512074  -0.014543   0.000332   0.003218
    10  H    0.001302   0.000107  -0.014543   0.514638  -0.014551   0.000113
    11  H   -0.000299   0.003218   0.000332  -0.014551   0.512082  -0.015206
    12  H   -0.031574  -0.000945   0.003218   0.000113  -0.015206   0.520784
    13  O    0.007389   0.000321   0.000102  -0.000004   0.000103   0.000322
    14  C    0.002571  -0.000244  -0.000021   0.000009  -0.000021  -0.000240
    15  H   -0.000745  -0.000150  -0.000016   0.000003  -0.000016  -0.000153
    16  H   -0.000450   0.000131  -0.000000  -0.000004  -0.000000   0.000135
    17  H    0.028970  -0.000617  -0.000617  -0.000284  -0.000610  -0.000686
    18  Cl  -0.009595   0.002197   0.000775   0.000333   0.000770   0.002256
              13         14         15         16         17         18
     1  C    0.040802  -0.000778   0.004632  -0.003817  -0.071481   0.031736
     2  C   -0.012438  -0.001294  -0.001685   0.001253   0.009955   0.007781
     3  C   -0.000391  -0.000156  -0.000569   0.000443   0.010774  -0.005437
     4  C   -0.001192   0.000489   0.000194  -0.000049   0.020701  -0.021052
     5  C   -0.000364  -0.000173  -0.000569   0.000443   0.011013  -0.005611
     6  C   -0.012359  -0.001471  -0.001686   0.001251   0.010611   0.007548
     7  F    0.007389   0.002571  -0.000745  -0.000450   0.028970  -0.009595
     8  H    0.000321  -0.000244  -0.000150   0.000131  -0.000617   0.002197
     9  H    0.000102  -0.000021  -0.000016  -0.000000  -0.000617   0.000775
    10  H   -0.000004   0.000009   0.000003  -0.000004  -0.000284   0.000333
    11  H    0.000103  -0.000021  -0.000016  -0.000000  -0.000610   0.000770
    12  H    0.000322  -0.000240  -0.000153   0.000135  -0.000686   0.002256
    13  O    8.131011   0.293944  -0.086614  -0.094559   0.007387  -0.006048
    14  C    0.293944   4.854972   0.387529   0.391534   0.000260  -0.002822
    15  H   -0.086614   0.387529   0.773048  -0.180369   0.001416   0.002729
    16  H   -0.094559   0.391534  -0.180369   0.782827   0.000571  -0.000622
    17  H    0.007387   0.000260   0.001416   0.000571   0.750827   0.134348
    18  Cl  -0.006048  -0.002822   0.002729  -0.000622   0.134348  16.944076
 Mulliken charges:
               1
     1  C   -0.402048
     2  C    0.070016
     3  C   -0.119446
     4  C   -0.238315
     5  C   -0.119363
     6  C    0.071577
     7  F   -0.184656
     8  H    0.188260
     9  H    0.184939
    10  H    0.158990
    11  H    0.184939
    12  H    0.188211
    13  O   -0.267411
    14  C    0.075910
    15  H    0.103019
    16  H    0.101281
    17  H    0.087459
    18  Cl  -0.083362
 Sum of Mulliken charges =  -0.00000
 Mulliken charges with hydrogens summed into heavy atoms:
               1
     1  C   -0.402048
     2  C    0.258276
     3  C    0.065493
     4  C   -0.079325
     5  C    0.065577
     6  C    0.259788
     7  F   -0.184656
    13  O   -0.267411
    14  C    0.280210
    18  Cl   0.004097
 Electronic spatial extent (au):  <R**2>=           2638.2343
 Charge=             -0.0000 electrons
 Dipole moment (field-independent basis, Debye):
    X=              0.5196    Y=             -1.2655    Z=              0.0046  Tot=              1.3680
 Quadrupole moment (field-independent basis, Debye-Ang):
   XX=            -39.4916   YY=            -69.0938   ZZ=            -59.4312
   XY=             -5.1277   XZ=              0.0157   YZ=             -0.0182
 Traceless Quadrupole moment (field-independent basis, Debye-Ang):
   XX=             16.5140   YY=            -13.0883   ZZ=             -3.4257
   XY=             -5.1277   XZ=              0.0157   YZ=             -0.0182
 Octapole moment (field-independent basis, Debye-Ang**2):
  XXX=            118.1118  YYY=             -3.7837  ZZZ=             -0.0223  XYY=             20.1093
  XXY=            -28.3567  XXZ=              0.0470  XZZ=             -0.2280  YZZ=             -3.4270
  YYZ=              0.0123  XYZ=              0.0032
 Hexadecapole moment (field-independent basis, Debye-Ang**3):
 XXXX=          -1769.0519 YYYY=           -646.1236 ZZZZ=           -257.5032 XXXY=           -176.9135
 XXXZ=              0.1700 YYYX=            -40.9424 YYYZ=              0.0607 ZZZX=             -0.0208
 ZZZY=             -0.0409 XXYY=           -506.9413 XXZZ=           -436.9162 YYZZ=           -163.0893
 XXYZ=             -0.1105 YYXZ=              0.0078 ZZXY=             -3.7261
 N-N= 5.565025655466D+02 E-N=-3.255977384623D+03  KE= 9.077913496964D+02
 Calling FoFJK, ICntrl=      2127 FMM=F ISym2X=0 I1Cent= 0 IOpClX= 0 NMat=1 NMatS=1 NMatT=0.
 ***** Axes restored to original set *****
 -------------------------------------------------------------------
 Center     Atomic                   Forces (Hartrees/Bohr)
 Number     Number              X              Y              Z
 -------------------------------------------------------------------
      1        6          -0.095739620   -0.000596236   -0.055277307
      2        6          -0.051779247   -0.000029678    0.015775872
      3        6           0.002420861    0.000130949    0.036651194
      4        6           0.039310058   -0.000118150    0.022698166
      5        6           0.032953233    0.000130627   -0.016227454
      6        6          -0.012227136   -0.000029720   -0.052729261
      7        9           0.028659495    0.000972614    0.016547966
      8        1          -0.065697143    0.000031838    0.035310665
      9        1          -0.001518111    0.000058373    0.073923819
     10        1           0.064365748    0.000027886    0.037160986
     11        1           0.063260288    0.000058837   -0.038276725
     12        1          -0.002269449    0.000032585   -0.074551059
     13        8           0.009477559    0.000455386    0.005443522
     14        6           0.068893054    0.000321528    0.040129808
     15        1          -0.039703638    0.072453477   -0.023086647
     16        1          -0.039610305   -0.072505347   -0.023032363
     17        1          -0.116974501   -0.759367944   -0.067552094
     18       17           0.116178852    0.757972974    0.067090913
 -------------------------------------------------------------------
 Cartesian Forces:  Max     0.759367944 RMS     0.152759819
 -----------------------------------------------------------------------------------------------
                       Internal Coordinate Forces (Hartree/Bohr or radian)
  Cent   Atom   N1       Length/X         N2         Alpha/Y        N3         Beta/Z          J
 -----------------------------------------------------------------------------------------------
      1  C 
      2  C        1   0.038224(     1)
      3  C        2   0.154150(     2)      1   0.166931(    18)
      4  C        3   0.221517(     3)      2   0.417767(    19)      1   0.000671(    34)     0
      5  C        4   0.183296(     4)      3   0.450863(    20)      2   0.000467(    35)     0
      6  C        5   0.077706(     5)      4   0.252259(    21)      3   0.000057(    36)     0
      7  F        1  -0.031084(     6)      2   0.000003(    22)      3   0.000748(    37)     0
      8  H        2   0.074551(     7)      3   0.004287(    23)      4   0.000052(    38)     0
      9  H        3   0.073924(     8)      4   0.002869(    24)      5   0.000096(    39)     0
     10  H        4   0.074323(     9)      5  -0.000001(    25)      6   0.000046(    40)     0
     11  H        5   0.073923(    10)      6  -0.002869(    26)      1   0.000096(    41)     0
     12  H        6   0.074551(    11)      1  -0.004289(    27)      2   0.000053(    42)     0
     13  O        7   0.001090(    12)      1   0.000005(    28)      3  -0.000007(    43)     0
     14  C       13   0.012019(    13)      1   0.000103(    29)      2  -0.000001(    44)     0
     15  H       14   0.085710(    14)      1   0.006705(    30)      2   0.000115(    45)     0
     16  H       14   0.085701(    15)      1   0.006479(    31)      2  -0.000115(    46)     0
     17  H        7  -0.001214(    16)      1   0.004138(    32)      2  -0.000015(    47)     0
     18  Cl      17   0.769754(    17)      7  -0.000851(    33)      1  -0.000008(    48)     0
 -----------------------------------------------------------------------------------------------
 Internal  Forces:  Max     0.769754178 RMS     0.159379750

 GradGradGradGradGradGradGradGradGradGradGradGradGradGradGradGradGradGrad
 Berny optimization.
 Search for a local minimum.
 Step number   1 out of a maximum of   50
 All quantities printed in internal units (Hartrees-Bohrs-Radians)
 Second derivative matrix not updated -- first step.
 The second derivative matrix:
                          d1        d2        d3        d4        d5
           d1           0.95300
           d2          -0.05489   0.95300
           d3          -0.33597   0.33597   1.34386
           d4          -0.28107   0.05489   0.33597   0.95300
           d5           0.05489  -0.28107  -0.33597  -0.05489   0.95300
           d6           0.00000   0.00000  -0.00000  -0.00000  -0.00000
           d7          -0.00000  -0.00000  -0.00000   0.00000   0.00000
           d8           0.00000   0.00000   0.00000  -0.00000  -0.00000
           d9          -0.00000  -0.00000  -0.00000   0.00000   0.00000
           d10          0.00000  -0.00000  -0.00000   0.00000  -0.00000
           d11         -0.00000  -0.00000   0.00000  -0.00000   0.00000
           d12          0.00000   0.00000  -0.00000  -0.00000  -0.00000
           d13          0.00000   0.00000  -0.00000  -0.00000  -0.00000
           d14          0.00000   0.00000  -0.00000  -0.00000  -0.00000
           d15         -0.00000  -0.00000  -0.00000   0.00000   0.00000
           d16         -0.00000  -0.00000  -0.00000   0.00000   0.00000
           d17         -0.00000  -0.00000   0.00000   0.00000   0.00000
                          d6        d7        d8        d9        d10
           d6           0.45621
           d7           0.00000   0.47688
           d8          -0.00000   0.00000   0.47688
           d9           0.00000  -0.00000   0.00000   0.47688
           d10          0.00000  -0.00000   0.00000  -0.00000   0.47688
           d11         -0.00000   0.00000  -0.00000   0.00000  -0.00000
           d12         -0.00000   0.00000  -0.00000   0.00000   0.00000
           d13         -0.00000   0.00000  -0.00000   0.00000   0.00000
           d14          0.00000  -0.00000  -0.00000   0.00000   0.00000
           d15          0.00000   0.00000   0.00000  -0.00000  -0.00000
           d16         -0.00000  -0.00000   0.00000  -0.00000  -0.00000
           d17          0.00000  -0.00000   0.00000  -0.00000  -0.00000
                          d11       d12       d13       d14       d15
           d11          0.47688
           d12          0.00000   0.02330
           d13          0.00000  -0.00000   1.04823
           d14          0.00000   0.00000   0.00000   0.47688
           d15         -0.00000   0.00000  -0.00000   0.00000   0.47688
           d16         -0.00000   0.00000  -0.00000   0.00000  -0.00000
           d17         -0.00000   0.00000   0.00000   0.00000  -0.00000
                          d16       d17
           d16          0.02721
           d17          0.00000   1.53817
 ITU=  0
     Eigenvalues ---    0.02330   0.02721   0.45621   0.47688   0.47688
     Eigenvalues ---    0.47688   0.47688   0.47688   0.47688   0.47688
     Eigenvalues ---    0.67193   0.67193   0.67193   1.04823   1.12429
     Eigenvalues ---    1.53817   2.01579
 RFO step:  Lambda=-4.25566199D-01 EMin= 2.33007068D-02
 Linear search not attempted -- first point.
 Maximum step size (   0.050) exceeded in Quadratic search.
    -- Step size scaled by   0.097
 Variable       Old X    -DE/DX   Delta X   Delta X   Delta X     New X
                                 (Linear)    (Quad)   (Total)
    d1        2.45664   0.03822   0.00000   0.00788   0.00788   2.46453
    d2        2.45664   0.15415   0.00000   0.01005   0.01005   2.46669
    d3        2.45664   0.22152   0.00000   0.01152   0.01152   2.46817
    d4        2.45664   0.18330   0.00000   0.01175   0.01175   2.46839
    d5        2.45664   0.07771   0.00000   0.01049   0.01049   2.46714
    d6        2.64562  -0.03108   0.00000  -0.00343  -0.00343   2.64219
    d7        1.88973   0.07455   0.00000   0.00803   0.00803   1.89776
    d8        1.88973   0.07392   0.00000   0.00797   0.00797   1.89769
    d9        1.88973   0.07432   0.00000   0.00801   0.00801   1.89773
   d10        1.88973   0.07392   0.00000   0.00797   0.00797   1.89769
   d11        1.88973   0.07455   0.00000   0.00803   0.00803   1.89776
   d12        5.29123   0.00109   0.00000   0.00024   0.00024   5.29147
   d13        2.26767   0.01202   0.00000   0.00079   0.00079   2.26846
   d14        1.88973   0.08571   0.00000   0.00924   0.00924   1.89896
   d15        1.88973   0.08570   0.00000   0.00923   0.00923   1.89896
   d16        4.34637  -0.00121   0.00000  -0.00026  -0.00026   4.34611
   d17        1.70075   0.76975   0.00000   0.03812   0.03812   1.73887
         Item               Value     Threshold  Converged?
 Maximum Force            0.769754     0.000450     NO 
 RMS     Force            0.210017     0.000300     NO 
 Maximum Displacement     0.038116     0.001800     NO 
 RMS     Displacement     0.012127     0.001200     NO 
 Predicted change in Energy=-3.990201D-02
 GradGradGradGradGradGradGradGradGradGradGradGradGradGradGradGradGradGrad

 ---------------------------------------------------------------------------------------------------
                            Z-MATRIX (ANGSTROMS AND DEGREES)
   CD    Cent   Atom    N1       Length/X        N2       Alpha/Y        N3        Beta/Z          J
 ---------------------------------------------------------------------------------------------------
      1      1  C 
      2      2  C        1   1.304171(     1)
      3      3  C        2   1.305318(     2)      1  120.000(    18)
      4      4  C        3   1.306098(     3)      2  120.000(    19)      1    0.000(    34)      0
      5      5  C        4   1.306215(     4)      3  120.000(    20)      2    0.000(    35)      0
      6      6  C        5   1.305552(     5)      4  120.000(    21)      3    0.000(    36)      0
      7      7  F        1   1.398186(     6)      2  120.000(    22)      3  180.000(    37)      0
      8      8  H        2   1.004251(     7)      3  120.000(    23)      4  180.000(    38)      0
      9      9  H        3   1.004215(     8)      4  120.000(    24)      5  180.000(    39)      0
     10     10  H        4   1.004238(     9)      5  120.000(    25)      6  180.000(    40)      0
     11     11  H        5   1.004215(    10)      6  120.000(    26)      1  180.000(    41)      0
     12     12  H        6   1.004251(    11)      1  120.000(    27)      2  180.000(    42)      0
     13     13  O        7   2.800125(    12)      1  179.900(    28)      3  180.000(    43)      0
     14     14  C       13   1.200420(    13)      1  179.900(    29)      2  180.000(    44)      0
     15     15  H       14   1.004887(    14)      1  120.000(    30)      2   90.000(    45)      0
     16     16  H       14   1.004887(    15)      1  120.000(    31)      2  -90.000(    46)      0
     17     17  H        7   2.299862(    16)      1  100.000(    32)      2   90.000(    47)      0
     18     18  Cl      17   0.920170(    17)      7  160.000(    33)      1    0.000(    48)      0
 ---------------------------------------------------------------------------------------------------
                         Z-Matrix orientation:                         
 ---------------------------------------------------------------------
 Center     Atomic      Atomic             Coordinates (Angstroms)
 Number     Number       Type             X           Y           Z
 ---------------------------------------------------------------------
      1          6           0        0.000000    0.000000    0.000000
      2          6           0        0.000000    0.000000    1.304171
      3          6           0        1.130439    0.000000    1.956830
      4          6           0        2.261553    0.000000    1.303781
      5          6           0        2.261553    0.000000   -0.002434
      6          6           0        1.130912    0.000000   -0.655211
      7          9           0       -1.210865   -0.000000   -0.699093
      8          1           0       -0.869707   -0.000000    1.806296
      9          1           0        1.130439   -0.000000    2.961045
     10          1           0        3.131249   -0.000000    1.805900
     11          1           0        3.131229   -0.000000   -0.504542
     12          1           0        1.129395   -0.000000   -1.659460
     13          8           0       -3.633397   -0.000000   -2.103386
     14          6           0       -4.671240   -0.000000   -2.706618
     15          1           0       -5.105978    0.870258   -2.958514
     16          1           0       -5.105978   -0.870257   -2.958514
     17          1           0       -1.556726    2.264922   -0.898776
     18         17           0       -1.418348    3.171113   -0.818883
 ---------------------------------------------------------------------
                    Distance matrix (angstroms):
                    1          2          3          4          5
     1  C    0.000000
     2  C    1.304171   0.000000
     3  C    2.259884   1.305318   0.000000
     4  C    2.610453   2.261553   1.306098   0.000000
     5  C    2.261554   2.611865   2.262330   1.306215   0.000000
     6  C    1.307005   2.262330   2.612041   2.261857   1.305552
     7  F    1.398186   2.340782   3.540569   4.008639   3.541612
     8  H    2.004768   1.004251   2.005802   3.171326   3.616116
     9  H    3.169492   2.005773   1.004215   2.006476   3.172007
    10  H    3.614691   3.171191   2.006494   1.004238   2.006600
    11  H    3.171617   3.616080   3.171989   2.006581   1.004215
    12  H    2.007322   3.171537   3.616291   3.172157   2.006867
    13  O    4.198310   4.981266   6.259351   6.808760   6.258149
    14  C    5.398728   6.156859   7.443603   8.009177   7.441520
    15  H    5.964996   6.708118   7.988170   8.555994   7.986005
    16  H    5.964995   6.708118   7.988170   8.555994   7.986005
    17  H    2.891551   3.522250   4.528269   4.955844   4.529079
    18  Cl   3.569067   4.071244   4.925125   5.301258   4.925872
                    6          7          8          9         10
     6  C    0.000000
     7  F    2.342187   0.000000
     8  H    3.171985   2.528510   0.000000
     9  H    3.616256   4.344918   2.309551   0.000000
    10  H    3.171500   5.012877   4.000955   2.310325   0.000000
    11  H    2.005984   4.346450   4.620331   4.001681   2.310442
    12  H    1.004251   2.529649   4.000985   4.620506   4.002017
    13  O    4.979543   2.800125   4.787859   6.952883   7.812998
    14  C    6.154123   4.000544   5.900682   8.110603   9.013415
    15  H    6.705323   4.586311   6.434809   8.642421   9.555569
    16  H    6.705322   4.586310   6.434809   8.642420   9.555569
    17  H    3.523151   2.299862   3.594341   5.220053   5.867048
    18  Cl   4.072035   3.180150   4.153135   5.553389   6.135493
                   11         12         13         14         15
    11  H    0.000000
    12  H    2.311098   0.000000
    13  O    6.951004   4.783436   0.000000
    14  C    8.107260   5.894396   1.200420   0.000000
    15  H    8.638919   6.428435   1.912352   1.004887   0.000000
    16  H    8.638918   6.428435   1.912352   1.004887   1.740515
    17  H    5.221323   3.594963   3.300532   4.254216   4.334143
    18  Cl   5.554585   4.153736   4.075824   4.919431   4.844644
                   16         17         18
    16  H    0.000000
    17  H    5.164209   0.000000
    18  Cl   5.874463   0.920170   0.000000
 Stoichiometry    C7H8ClFO
 Framework group  C1[X(C7H8ClFO)]
 Deg. of freedom    48
 Full point group                 C1      NOp   1
 Largest Abelian subgroup         C1      NOp   1
 Largest concise Abelian subgroup C1      NOp   1
                         Standard orientation:                         
 ---------------------------------------------------------------------
 Center     Atomic      Atomic             Coordinates (Angstroms)
 Number     Number       Type             X           Y           Z
 ---------------------------------------------------------------------
      1          6           0       -0.842949   -0.566338   -0.002431
      2          6           0       -1.490492   -0.481611   -1.131311
      3          6           0       -2.785257   -0.315962   -1.130184
      4          6           0       -3.432294   -0.235066    0.001493
      5          6           0       -2.783735   -0.319926    1.132142
      6          6           0       -1.488739   -0.485605    1.131015
      7          9           0        0.543933   -0.743772   -0.003638
      8          1           0       -0.992989   -0.543811   -2.001450
      9          1           0       -3.283867   -0.250722   -1.999424
     10          1           0       -4.428413   -0.107625    0.002360
     11          1           0       -3.281221   -0.257728    2.002250
     12          1           0       -0.988809   -0.551012    1.999526
     13          8           0        3.321417   -1.099125   -0.001169
     14          6           0        4.512128   -1.251467    0.001287
     15          1           0        5.120949   -0.452010    0.003071
     16          1           0        4.900069   -2.178450    0.000195
     17          1           0        1.227499    1.452154   -0.000240
     18         17           0        1.184005    2.371294    0.001396
 ---------------------------------------------------------------------
 Rotational constants (GHZ):           1.4736071           0.4869346           0.4123103
 Standard basis: 6-311++G(d,p) (5D, 7F)
 There are   294 symmetry adapted cartesian basis functions of A   symmetry.
 There are   284 symmetry adapted basis functions of A   symmetry.
   284 basis functions,   449 primitive gaussians,   294 cartesian basis functions
    42 alpha electrons       42 beta electrons
       nuclear repulsion energy       554.6454850343 Hartrees.
 NAtoms=   18 NActive=   18 NUniq=   18 SFac= 1.00D+00 NAtFMM=   60 NAOKFM=F Big=F
 Integral buffers will be    131072 words long.
 Raffenetti 2 integral format.
 Two-electron integral symmetry is turned on.
 One-electron integrals computed using PRISM.
 NBasis=   284 RedAO= T EigKep=  4.36D-06  NBF=   284
 NBsUse=   283 1.00D-06 EigRej=  5.85D-07 NBFU=   283
 Initial guess from the checkpoint file:  "model_H1.chk"
 B after Tr=     0.000000    0.000000    0.000000
         Rot=    1.000000   -0.000066    0.000014    0.000129 Ang=  -0.02 deg.
 ExpMin= 3.60D-02 ExpMax= 1.06D+05 ExpMxC= 3.62D+03 IAcc=3 IRadAn=         5 AccDes= 0.00D+00
 Harris functional with IExCor= 1009 and IRadAn=       5 diagonalized for initial guess.
 HarFok:  IExCor= 1009 AccDes= 0.00D+00 IRadAn=         5 IDoV= 1 UseB2=F ITyADJ=14
 ICtDFT=  3500011 ScaDFX=  1.000000  1.000000  1.000000  1.000000
 FoFCou: FMM=F IPFlag=           0 FMFlag=      100000 FMFlg1=           0
         NFxFlg=           0 DoJE=T BraDBF=F KetDBF=T FulRan=T
         wScrn=  0.000000 ICntrl=       500 IOpCl=  0 I1Cent=   200000004 NGrid=           0
         NMat0=    1 NMatS0=      1 NMatT0=    0 NMatD0=    1 NMtDS0=    0 NMtDT0=    0
 Petite list used in FoFCou.
 Requested convergence on RMS density matrix=1.00D-08 within 128 cycles.
 Requested convergence on MAX density matrix=1.00D-06.
 Requested convergence on             energy=1.00D-06.
 No special actions if energy rises.
 SCF Done:  E(RM062X) =  -906.479239043     A.U. after   11 cycles
            NFock= 11  Conv=0.50D-08     -V/T= 1.9988
 Calling FoFJK, ICntrl=      2127 FMM=F ISym2X=0 I1Cent= 0 IOpClX= 0 NMat=1 NMatS=1 NMatT=0.
 ***** Axes restored to original set *****
 -------------------------------------------------------------------
 Center     Atomic                   Forces (Hartrees/Bohr)
 Number     Number              X              Y              Z
 -------------------------------------------------------------------
      1        6          -0.087179709   -0.000606615   -0.053857393
      2        6          -0.048117262   -0.000021138    0.015309129
      3        6           0.003649108    0.000123996    0.032406621
      4        6           0.034951135   -0.000112094    0.020354314
      5        6           0.029247661    0.000123140   -0.013688031
      6        6          -0.013085983   -0.000017880   -0.047143182
      7        9           0.028070431    0.001050582    0.016264498
      8        1          -0.061660878    0.000029511    0.032987870
      9        1          -0.001455930    0.000059081    0.069299469
     10        1           0.060331023    0.000028684    0.034828616
     11        1           0.059292840    0.000059625   -0.035923779
     12        1          -0.002323163    0.000030500   -0.069842287
     13        8           0.008309067    0.000458718    0.004764629
     14        6           0.065642209    0.000322680    0.038246875
     15        1          -0.037489699    0.067841266   -0.021803115
     16        1          -0.037394798   -0.067893838   -0.021748119
     17        1          -0.103714249   -0.671910819   -0.059882990
     18       17           0.102928198    0.670434603    0.059426874
 -------------------------------------------------------------------
 Cartesian Forces:  Max     0.671910819 RMS     0.135586566
 -----------------------------------------------------------------------------------------------
                       Internal Coordinate Forces (Hartree/Bohr or radian)
  Cent   Atom   N1       Length/X         N2         Alpha/Y        N3         Beta/Z          J
 -----------------------------------------------------------------------------------------------
      1  C 
      2  C        1   0.037114(     1)
      3  C        2   0.141419(     2)      1   0.147949(    18)
      4  C        3   0.201555(     3)      2   0.376909(    19)      1   0.000707(    34)     0
      5  C        4   0.168072(     4)      3   0.408663(    20)      2   0.000496(    35)     0
      6  C        5   0.073314(     5)      4   0.230261(    21)      3   0.000077(    36)     0
      7  F        1  -0.030455(     6)      2  -0.000129(    22)      3   0.000967(    37)     0
      8  H        2   0.069894(     7)      3   0.004293(    23)      4   0.000049(    38)     0
      9  H        3   0.069299(     8)      4   0.002763(    24)      5   0.000097(    39)     0
     10  H        4   0.069663(     9)      5  -0.000006(    25)      6   0.000047(    40)     0
     11  H        5   0.069311(    10)      6  -0.002779(    26)      1   0.000098(    41)     0
     12  H        6   0.069846(    11)      1  -0.004209(    27)      2   0.000050(    42)     0
     13  O        7   0.001078(    12)      1   0.000006(    28)      3  -0.000007(    43)     0
     14  C       13   0.010656(    13)      1   0.000103(    29)      2  -0.000001(    44)     0
     15  H       14   0.080437(    14)      1   0.006908(    30)      2   0.000115(    45)     0
     16  H       14   0.080427(    15)      1   0.006678(    31)      2  -0.000115(    46)     0
     17  H        7  -0.001296(    16)      1   0.003914(    32)      2   0.000007(    47)     0
     18  Cl      17   0.680888(    17)      7  -0.001089(    33)      1  -0.000001(    48)     0
 -----------------------------------------------------------------------------------------------
 Internal  Forces:  Max     0.680887606 RMS     0.143001613

 GradGradGradGradGradGradGradGradGradGradGradGradGradGradGradGradGradGrad
 Berny optimization.
 Search for a local minimum.
 Step number   2 out of a maximum of   50
 All quantities printed in internal units (Hartrees-Bohrs-Radians)
 Update second derivatives using D2CorN and points    1    2
 The second derivative matrix:
                          d1        d2        d3        d4        d5
           d1           0.95536
           d2          -0.05021   0.96112
           d3          -0.32900   0.34730   1.35920
           d4          -0.27553   0.06446   0.34931   0.96427
           d5           0.05851  -0.27422  -0.32599  -0.04680   0.95846
           d6           0.00096   0.00049  -0.00013   0.00055   0.00107
           d7           0.00250   0.00490   0.00725   0.00580   0.00382
           d8           0.00249   0.00488   0.00720   0.00576   0.00381
           d9           0.00252   0.00492   0.00727   0.00582   0.00385
           d10          0.00247   0.00485   0.00717   0.00573   0.00378
           d11          0.00258   0.00500   0.00736   0.00591   0.00393
           d12          0.00005   0.00011   0.00017   0.00013   0.00007
           d13          0.00096   0.00139   0.00175   0.00163   0.00132
           d14          0.00275   0.00548   0.00815   0.00647   0.00423
           d15          0.00275   0.00548   0.00815   0.00648   0.00423
           d16          0.00010   0.00007   0.00003   0.00008   0.00012
           d17          0.05336   0.07617   0.09505   0.08932   0.07337
                          d6        d7        d8        d9        d10
           d6           0.45492
           d7           0.00094   0.47954
           d8           0.00092   0.00264   0.47951
           d9           0.00092   0.00267   0.00266   0.47958
           d10          0.00093   0.00262   0.00261   0.00264   0.47948
           d11          0.00090   0.00273   0.00272   0.00275   0.00270
           d12          0.00004   0.00005   0.00005   0.00005   0.00005
           d13         -0.00022   0.00099   0.00098   0.00099   0.00098
           d14          0.00113   0.00292   0.00291   0.00295   0.00289
           d15          0.00113   0.00292   0.00291   0.00295   0.00289
           d16         -0.00011   0.00010   0.00010   0.00010   0.00010
           d17         -0.01361   0.05488   0.05446   0.05484   0.05437
                          d11       d12       d13       d14       d15
           d11          0.47969
           d12          0.00005   0.02330
           d13          0.00099   0.00003   1.04840
           d14          0.00301   0.00005   0.00112   0.48010
           d15          0.00301   0.00005   0.00112   0.00321   0.48010
           d16          0.00010   0.00000  -0.00001   0.00012   0.00012
           d17          0.05525   0.00148   0.00885   0.06248   0.06248
                          d16       d17
           d16          0.02720
           d17         -0.00090   1.99918
 ITU=  0  0
 Linear search step of   0.100 exceeds DXMaxT=   0.050 scaled by   1.000
 Quartic linear search produced a step of  2.00000.
 Variable       Old X    -DE/DX   Delta X   Delta X   Delta X     New X
                                 (Linear)    (Quad)   (Total)
    d1        2.46453   0.03711   0.01576   0.00000   0.01576   2.48029
    d2        2.46669   0.14142   0.02010   0.00000   0.02010   2.48679
    d3        2.46817   0.20155   0.02305   0.00000   0.02305   2.49122
    d4        2.46839   0.16807   0.02349   0.00000   0.02349   2.49188
    d5        2.46714   0.07331   0.02099   0.00000   0.02099   2.48812
    d6        2.64219  -0.03046  -0.00686   0.00000  -0.00686   2.63533
    d7        1.89776   0.06989   0.01607   0.00000   0.01607   1.91382
    d8        1.89769   0.06930   0.01593   0.00000   0.01593   1.91362
    d9        1.89773   0.06966   0.01602   0.00000   0.01602   1.91375
   d10        1.89769   0.06931   0.01593   0.00000   0.01593   1.91362
   d11        1.89776   0.06985   0.01607   0.00000   0.01607   1.91383
   d12        5.29147   0.00108   0.00047   0.00000   0.00047   5.29194
   d13        2.26846   0.01066   0.00159   0.00000   0.00159   2.27005
   d14        1.89896   0.08044   0.01847   0.00000   0.01847   1.91743
   d15        1.89896   0.08043   0.01847   0.00000   0.01847   1.91743
   d16        4.34611  -0.00130  -0.00052   0.00000  -0.00052   4.34559
   d17        1.73887   0.68089   0.07623   0.00000   0.07623   1.81510
         Item               Value     Threshold  Converged?
 Maximum Force            0.680888     0.000450     NO 
 RMS     Force            0.187466     0.000300     NO 
 Maximum Displacement     0.076233     0.001800     NO 
 RMS     Displacement     0.024254     0.001200     NO 
 Predicted change in Energy=-6.570144D-02
 GradGradGradGradGradGradGradGradGradGradGradGradGradGradGradGradGradGrad

 ---------------------------------------------------------------------------------------------------
                            Z-MATRIX (ANGSTROMS AND DEGREES)
   CD    Cent   Atom    N1       Length/X        N2       Alpha/Y        N3        Beta/Z          J
 ---------------------------------------------------------------------------------------------------
      1      1  C 
      2      2  C        1   1.312513(     1)
      3      3  C        2   1.315955(     2)      1  120.000(    18)
      4      4  C        3   1.318295(     3)      2  120.000(    19)      1    0.000(    34)      0
      5      5  C        4   1.318646(     4)      3  120.000(    20)      2    0.000(    35)      0
      6      6  C        5   1.316657(     5)      4  120.000(    21)      3    0.000(    36)      0
      7      7  F        1   1.394558(     6)      2  120.000(    22)      3  180.000(    37)      0
      8      8  H        2   1.012753(     7)      3  120.000(    23)      4  180.000(    38)      0
      9      9  H        3   1.012645(     8)      4  120.000(    24)      5  180.000(    39)      0
     10     10  H        4   1.012714(     9)      5  120.000(    25)      6  180.000(    40)      0
     11     11  H        5   1.012645(    10)      6  120.000(    26)      1  180.000(    41)      0
     12     12  H        6   1.012753(    11)      1  120.000(    27)      2  180.000(    42)      0
     13     13  O        7   2.800375(    12)      1  179.900(    28)      3  180.000(    43)      0
     14     14  C       13   1.201259(    13)      1  179.900(    29)      2  180.000(    44)      0
     15     15  H       14   1.014661(    14)      1  120.000(    30)      2   90.000(    45)      0
     16     16  H       14   1.014660(    15)      1  120.000(    31)      2  -90.000(    46)      0
     17     17  H        7   2.299586(    16)      1  100.000(    32)      2   90.000(    47)      0
     18     18  Cl      17   0.960511(    17)      7  160.000(    33)      1    0.000(    48)      0
 ---------------------------------------------------------------------------------------------------
                         Z-Matrix orientation:                         
 ---------------------------------------------------------------------
 Center     Atomic      Atomic             Coordinates (Angstroms)
 Number     Number       Type             X           Y           Z
 ---------------------------------------------------------------------
      1          6           0        0.000000    0.000000    0.000000
      2          6           0        0.000000    0.000000    1.312513
      3          6           0        1.139650    0.000000    1.970490
      4          6           0        2.281327    0.000000    1.311343
      5          6           0        2.281327    0.000000   -0.007303
      6          6           0        1.141069    0.000000   -0.665632
      7          9           0       -1.207723   -0.000000   -0.697279
      8          1           0       -0.877069   -0.000000    1.818889
      9          1           0        1.139650   -0.000000    2.983135
     10          1           0        3.158363   -0.000000    1.817699
     11          1           0        3.158304   -0.000000   -0.513626
     12          1           0        1.136530   -0.000000   -1.678374
     13          8           0       -3.630471   -0.000000   -2.101697
     14          6           0       -4.669039   -0.000000   -2.705352
     15          1           0       -5.108006    0.878723   -2.959699
     16          1           0       -5.108005   -0.878721   -2.959699
     17          1           0       -1.553543    2.264650   -0.896938
     18         17           0       -1.409098    3.210569   -0.813543
 ---------------------------------------------------------------------
                    Distance matrix (angstroms):
                    1          2          3          4          5
     1  C    0.000000
     2  C    1.312513   0.000000
     3  C    2.276320   1.315955   0.000000
     4  C    2.631363   2.281328   1.318295   0.000000
     5  C    2.281339   2.635596   2.283658   1.318646   0.000000
     6  C    1.321024   2.283658   2.636122   2.282240   1.316657
     7  F    1.394558   2.344751   3.553471   4.025920   3.556619
     8  H    2.019309   1.012753   2.022410   3.198917   3.648349
     9  H    3.193415   2.022321   1.012645   2.024430   3.200961
    10  H    3.644076   3.198511   2.024486   1.012714   2.024803
    11  H    3.199796   3.648241   3.200905   2.024746   1.012645
    12  H    2.026978   3.199548   3.648866   3.201401   2.025596
    13  O    4.194931   4.983688   6.271903   6.826287   6.271829
    14  C    5.396189   6.159802   7.456834   8.027542   7.455673
    15  H    5.968559   6.716820   8.007005   8.579988   8.005688
    16  H    5.968558   6.716819   8.007004   8.579987   8.005687
    17  H    2.889054   3.524743   4.539172   4.971054   4.541621
    18  Cl   3.599328   4.100417   4.955271   5.333116   4.957521
                    6          7          8          9         10
     6  C    0.000000
     7  F    2.349004   0.000000
     8  H    3.200894   2.537801   0.000000
     9  H    3.648768   4.365273   2.328654   0.000000
    10  H    3.199439   5.038633   4.035433   2.330974   0.000000
    11  H    2.022954   4.369887   4.660994   4.037611   2.331325
    12  H    1.012753   2.541273   4.035521   4.661511   4.038606
    13  O    4.982958   2.800375   4.790847   6.972057   7.839001
    14  C    6.157744   4.001633   5.903202   8.130176   9.040255
    15  H    6.714598   4.593790   6.442661   8.667332   9.587938
    16  H    6.714597   4.593789   6.442660   8.667331   9.587937
    17  H    3.527474   2.299586   3.600274   5.238025   5.890667
    18  Cl   4.102801   3.218978   4.185750   5.587364   6.171944
                   11         12         13         14         15
    11  H    0.000000
    12  H    2.333283   0.000000
    13  O    6.972046   4.785760   0.000000
    14  C    8.128404   5.895703   1.201259   0.000000
    15  H    8.665293   6.434919   1.921310   1.014661   0.000000
    16  H    8.665292   6.434918   1.921308   1.014660   1.757444
    17  H    5.241857   3.602190   3.300563   4.255034   4.337048
    18  Cl   5.590962   4.187590   4.111155   4.951153   4.870874
                   16         17         18
    16  H    0.000000
    17  H    5.173970   0.000000
    18  Cl   5.916942   0.960511   0.000000
 Stoichiometry    C7H8ClFO
 Framework group  C1[X(C7H8ClFO)]
 Deg. of freedom    48
 Full point group                 C1      NOp   1
 Largest Abelian subgroup         C1      NOp   1
 Largest concise Abelian subgroup C1      NOp   1
                         Standard orientation:                         
 ---------------------------------------------------------------------
 Center     Atomic      Atomic             Coordinates (Angstroms)
 Number     Number       Type             X           Y           Z
 ---------------------------------------------------------------------
      1          6           0       -0.837001   -0.573902   -0.004611
      2          6           0       -1.487894   -0.487037   -1.141045
      3          6           0       -2.792937   -0.317919   -1.140578
      4          6           0       -3.446539   -0.235749    0.001330
      5          6           0       -2.792604   -0.323020    1.143074
      6          6           0       -1.486865   -0.492228    1.142607
      7          9           0        0.545993   -0.753122   -0.005106
      8          1           0       -0.985778   -0.550162   -2.018291
      9          1           0       -3.295122   -0.250899   -2.017372
     10          1           0       -4.450855   -0.105601    0.001689
     11          1           0       -3.294667   -0.259901    2.020228
     12          1           0       -0.980734   -0.559754    2.017215
     13          8           0        3.323143   -1.113018   -0.001212
     14          6           0        4.514436   -1.267403    0.001858
     15          1           0        5.130487   -0.461169    0.004397
     16          1           0        4.904630   -2.204035    0.000536
     17          1           0        1.233040    1.441426   -0.000273
     18         17           0        1.189196    2.400934    0.001864
 ---------------------------------------------------------------------
 Rotational constants (GHZ):           1.4399431           0.4846662           0.4089814
 Standard basis: 6-311++G(d,p) (5D, 7F)
 There are   294 symmetry adapted cartesian basis functions of A   symmetry.
 There are   284 symmetry adapted basis functions of A   symmetry.
   284 basis functions,   449 primitive gaussians,   294 cartesian basis functions
    42 alpha electrons       42 beta electrons
       nuclear repulsion energy       550.9961819968 Hartrees.
 NAtoms=   18 NActive=   18 NUniq=   18 SFac= 1.00D+00 NAtFMM=   60 NAOKFM=F Big=F
 Integral buffers will be    131072 words long.
 Raffenetti 2 integral format.
 Two-electron integral symmetry is turned on.
 One-electron integrals computed using PRISM.
 NBasis=   284 RedAO= T EigKep=  4.71D-06  NBF=   284
 NBsUse=   283 1.00D-06 EigRej=  6.33D-07 NBFU=   283
 Initial guess from the checkpoint file:  "model_H1.chk"
 B after Tr=    -0.000000    0.000000   -0.000000
         Rot=    1.000000   -0.000129    0.000028    0.000266 Ang=  -0.03 deg.
 ExpMin= 3.60D-02 ExpMax= 1.06D+05 ExpMxC= 3.62D+03 IAcc=3 IRadAn=         5 AccDes= 0.00D+00
 Harris functional with IExCor= 1009 and IRadAn=       5 diagonalized for initial guess.
 HarFok:  IExCor= 1009 AccDes= 0.00D+00 IRadAn=         5 IDoV= 1 UseB2=F ITyADJ=14
 ICtDFT=  3500011 ScaDFX=  1.000000  1.000000  1.000000  1.000000
 FoFCou: FMM=F IPFlag=           0 FMFlag=      100000 FMFlg1=           0
         NFxFlg=           0 DoJE=T BraDBF=F KetDBF=T FulRan=T
         wScrn=  0.000000 ICntrl=       500 IOpCl=  0 I1Cent=   200000004 NGrid=           0
         NMat0=    1 NMatS0=      1 NMatT0=    0 NMatD0=    1 NMtDS0=    0 NMtDT0=    0
 Petite list used in FoFCou.
 Requested convergence on RMS density matrix=1.00D-08 within 128 cycles.
 Requested convergence on MAX density matrix=1.00D-06.
 Requested convergence on             energy=1.00D-06.
 No special actions if energy rises.
 SCF Done:  E(RM062X) =  -906.545778893     A.U. after   11 cycles
            NFock= 11  Conv=0.97D-08     -V/T= 1.9995
 Calling FoFJK, ICntrl=      2127 FMM=F ISym2X=0 I1Cent= 0 IOpClX= 0 NMat=1 NMatS=1 NMatT=0.
 ***** Axes restored to original set *****
 -------------------------------------------------------------------
 Center     Atomic                   Forces (Hartrees/Bohr)
 Number     Number              X              Y              Z
 -------------------------------------------------------------------
      1        6          -0.070906588   -0.000625690   -0.050906806
      2        6          -0.041148914   -0.000006621    0.014327602
      3        6           0.005930652    0.000111095    0.024370975
      4        6           0.026716854   -0.000099426    0.015959217
      5        6           0.022205758    0.000109947   -0.008958400
      6        6          -0.014534245   -0.000000100   -0.036552320
      7        9           0.026860052    0.001200617    0.015675048
      8        1          -0.053852687    0.000025414    0.028496745
      9        1          -0.001336831    0.000060147    0.060350789
     10        1           0.052522908    0.000030088    0.030314482
     11        1           0.051615218    0.000060894   -0.031370531
     12        1          -0.002390640    0.000026970   -0.060732000
     13        8           0.005977687    0.000466066    0.003410065
     14        6           0.059487850    0.000324822    0.034682212
     15        1          -0.033237600    0.058984486   -0.019337852
     16        1          -0.033138975   -0.059037901   -0.019281130
     17        1          -0.081075927   -0.522562499   -0.046769174
     18       17           0.080305430    0.520931693    0.046321075
 -------------------------------------------------------------------
 Cartesian Forces:  Max     0.522562499 RMS     0.106203901
 -----------------------------------------------------------------------------------------------
                       Internal Coordinate Forces (Hartree/Bohr or radian)
  Cent   Atom   N1       Length/X         N2         Alpha/Y        N3         Beta/Z          J
 -----------------------------------------------------------------------------------------------
      1  C 
      2  C        1   0.034804(     1)
      3  C        2   0.117156(     2)      1   0.111781(    18)
      4  C        3   0.163560(     3)      2   0.298719(    19)      1   0.000762(    34)     0
      5  C        4   0.139016(     4)      3   0.327696(    20)      2   0.000535(    35)     0
      6  C        5   0.064710(     5)      4   0.187973(    21)      3   0.000108(    36)     0
      7  F        1  -0.029155(     6)      2  -0.000389(    22)      3   0.001385(    37)     0
      8  H        2   0.060886(     7)      3   0.004301(    23)      4   0.000042(    38)     0
      9  H        3   0.060351(     8)      4   0.002558(    24)      5   0.000100(    39)     0
     10  H        4   0.060643(     9)      5  -0.000016(    25)      6   0.000050(    40)     0
     11  H        5   0.060385(    10)      6  -0.002603(    26)      1   0.000101(    41)     0
     12  H        6   0.060742(    11)      1  -0.004054(    27)      2   0.000045(    42)     0
     13  O        7   0.001052(    12)      1   0.000007(    28)      3  -0.000007(    43)     0
     14  C       13   0.007934(    13)      1   0.000103(    29)      2  -0.000001(    44)     0
     15  H       14   0.070309(    14)      1   0.007305(    30)      2   0.000114(    45)     0
     16  H       14   0.070298(    15)      1   0.007065(    31)      2  -0.000114(    46)     0
     17  H        7  -0.001451(    16)      1   0.003521(    32)      2   0.000079(    47)     0
     18  Cl      17   0.529116(    17)      7  -0.001524(    33)      1   0.000023(    48)     0
 -----------------------------------------------------------------------------------------------
 Internal  Forces:  Max     0.529115986 RMS     0.113554747

 GradGradGradGradGradGradGradGradGradGradGradGradGradGradGradGradGradGrad
 Berny optimization.
 Search for a local minimum.
 Step number   3 out of a maximum of   50
 All quantities printed in internal units (Hartrees-Bohrs-Radians)
 Update second derivatives using D2CorN and points    2    3
 The second derivative matrix:
                          d1        d2        d3        d4        d5
           d1           0.95019
           d2          -0.05700   0.95221
           d3          -0.33642   0.33755   1.34854
           d4          -0.28343   0.05410   0.33797   0.95223
           d5           0.05164  -0.28325  -0.33586  -0.05730   0.94932
           d6           0.00420   0.00471   0.00455   0.00546   0.00538
           d7          -0.00303  -0.00235  -0.00070  -0.00264  -0.00353
           d8          -0.00298  -0.00231  -0.00067  -0.00259  -0.00348
           d9          -0.00297  -0.00228  -0.00063  -0.00257  -0.00346
           d10         -0.00301  -0.00234  -0.00071  -0.00263  -0.00352
           d11         -0.00291  -0.00220  -0.00053  -0.00247  -0.00338
           d12         -0.00012  -0.00011  -0.00007  -0.00013  -0.00015
           d13          0.00079   0.00115   0.00152   0.00136   0.00110
           d14         -0.00372  -0.00301  -0.00116  -0.00340  -0.00439
           d15         -0.00372  -0.00301  -0.00116  -0.00339  -0.00438
           d16          0.00036   0.00041   0.00040   0.00047   0.00046
           d17          0.02855   0.04357   0.05942   0.05141   0.04036
                          d6        d7        d8        d9        d10
           d6           0.45308
           d7           0.00435   0.47363
           d8           0.00431  -0.00320   0.47373
           d9           0.00432  -0.00319  -0.00315   0.47374
           d10          0.00432  -0.00323  -0.00319  -0.00318   0.47367
           d11          0.00430  -0.00313  -0.00309  -0.00308  -0.00312
           d12          0.00014  -0.00013  -0.00013  -0.00013  -0.00013
           d13         -0.00004   0.00079   0.00078   0.00079   0.00078
           d14          0.00511  -0.00398  -0.00393  -0.00392  -0.00396
           d15          0.00511  -0.00398  -0.00393  -0.00392  -0.00396
           d16         -0.00025   0.00037   0.00037   0.00037   0.00037
           d17          0.00198   0.02831   0.02816   0.02844   0.02803
                          d11       d12       d13       d14       d15
           d11          0.47387
           d12         -0.00013   0.02330
           d13          0.00080   0.00002   1.04842
           d14         -0.00385  -0.00016   0.00088   0.47202
           d15         -0.00385  -0.00016   0.00088  -0.00486   0.47202
           d16          0.00037   0.00001   0.00000   0.00043   0.00043
           d17          0.02886   0.00067   0.00804   0.03137   0.03138
                          d16       d17
           d16          0.02719
           d17          0.00033   1.88003
 ITU=  0  0  0
 Linear search step of   0.200 exceeds DXMaxT=   0.050 scaled by   0.500
 Quartic linear search produced a step of  1.00000.
 Variable       Old X    -DE/DX   Delta X   Delta X   Delta X     New X
                                 (Linear)    (Quad)   (Total)
    d1        2.48029   0.03480   0.01576   0.00000   0.01576   2.49605
    d2        2.48679   0.11716   0.02010   0.00000   0.02010   2.50689
    d3        2.49122   0.16356   0.02305   0.00000   0.02305   2.51426
    d4        2.49188   0.13902   0.02349   0.00000   0.02349   2.51537
    d5        2.48812   0.06471   0.02099   0.00000   0.02099   2.50911
    d6        2.63533  -0.02916  -0.00686   0.00000  -0.00686   2.62848
    d7        1.91382   0.06089   0.01607   0.00000   0.01607   1.92989
    d8        1.91362   0.06035   0.01593   0.00000   0.01593   1.92955
    d9        1.91375   0.06064   0.01602   0.00000   0.01602   1.92977
   d10        1.91362   0.06039   0.01593   0.00000   0.01593   1.92955
   d11        1.91383   0.06074   0.01607   0.00000   0.01607   1.92989
   d12        5.29194   0.00105   0.00047   0.00000   0.00047   5.29241
   d13        2.27005   0.00793   0.00159   0.00000   0.00159   2.27164
   d14        1.91743   0.07031   0.01847   0.00000   0.01847   1.93590
   d15        1.91743   0.07030   0.01847   0.00000   0.01847   1.93590
   d16        4.34559  -0.00145  -0.00052   0.00000  -0.00052   4.34507
   d17        1.81510   0.52912   0.07623   0.00000   0.07623   1.89134
         Item               Value     Threshold  Converged?
 Maximum Force            0.529116     0.000450     NO 
 RMS     Force            0.148389     0.000300     NO 
 Maximum Displacement     0.076233     0.001800     NO 
 RMS     Displacement     0.024254     0.001200     NO 
 Predicted change in Energy=-5.182215D-02
 GradGradGradGradGradGradGradGradGradGradGradGradGradGradGradGradGradGrad

 ---------------------------------------------------------------------------------------------------
                            Z-MATRIX (ANGSTROMS AND DEGREES)
   CD    Cent   Atom    N1       Length/X        N2       Alpha/Y        N3        Beta/Z          J
 ---------------------------------------------------------------------------------------------------
      1      1  C 
      2      2  C        1   1.320854(     1)
      3      3  C        2   1.326592(     2)      1  120.000(    18)
      4      4  C        3   1.330491(     3)      2  120.000(    19)      1    0.000(    34)      0
      5      5  C        4   1.331077(     4)      3  120.000(    20)      2    0.000(    35)      0
      6      6  C        5   1.327762(     5)      4  120.000(    21)      3    0.000(    36)      0
[...]
     11          1           0        3.337374   -0.000000   -0.558230
     12          1           0        1.170180   -0.000000   -1.798395
     13          8           0       -3.734847   -0.000000   -2.162295
     14          6           0       -4.771503   -0.000000   -2.764887
     15          1           0       -5.248959    0.955785   -3.041553
     16          1           0       -5.249001   -0.955869   -3.041577
     17          1           0       -1.475337    2.014501   -0.851786
     18         17           0       -1.281901    3.281242   -0.740106
 ---------------------------------------------------------------------
                    Distance matrix (angstroms):
                    1          2          3          4          5
     1  C    0.000000
     2  C    1.379307   0.000000
     3  C    2.392816   1.383679   0.000000
     4  C    2.766976   2.399714   1.387271   0.000000
     5  C    2.399772   2.776317   2.408984   1.394381   0.000000
     6  C    1.388205   2.409043   2.786696   2.417694   1.397331
     7  F    1.348361   2.362280   3.624203   4.115334   3.627478
     8  H    2.138143   1.083703   2.142072   3.382205   3.860015
     9  H    3.373912   2.141322   1.082797   2.144552   3.390789
    10  H    3.850090   3.381082   2.144817   1.083117   2.151213
    11  H    3.383738   3.859030   3.389579   2.150883   1.082717
    12  H    2.145587   3.386312   3.869643   3.405602   2.164620
    13  O    4.315622   5.147040   6.500612   7.082587   6.498897
    14  C    5.514693   6.319935   7.682823   8.281654   7.679709
    15  H    6.141347   6.928859   8.283742   8.885034   8.280363
    16  H    6.141408   6.928919   8.283799   8.885091   8.280420
    17  H    2.638252   3.348523   4.444107   4.903467   4.446494
    18  Cl   3.599663   4.111171   4.982077   5.367041   4.984365
                    6          7          8          9         10
     6  C    0.000000
     7  F    2.357667   0.000000
     8  H    3.388359   2.605439   0.000000
     9  H    3.869489   4.500284   2.466929   0.000000
    10  H    3.399354   5.198450   4.276234   2.470228   0.000000
    11  H    2.153538   4.506581   4.942730   4.284374   2.477298
    12  H    1.083033   2.594149   4.275706   4.952418   4.303227
    13  O    5.132560   2.967263   4.949147   7.252470   8.165704
    14  C    6.303527   4.166334   6.053992   8.406611   9.364770
    15  H    6.912220   4.813993   6.642436   8.992489   9.962547
    16  H    6.912279   4.814058   6.642494   8.992545   9.962603
    17  H    3.343442   2.045578   3.469238   5.220385   5.907737
    18  Cl   4.107970   3.283890   4.238725   5.664059   6.259285
                   11         12         13         14         15
    11  H    0.000000
    12  H    2.496946   0.000000
    13  O    7.251850   4.918507   0.000000
    14  C    8.403762   6.019776   1.199072   0.000000
    15  H    8.989190   6.607898   1.994782   1.103646   0.000000
    16  H    8.989246   6.607955   1.994866   1.103743   1.911655
    17  H    5.225569   3.457317   3.298641   4.310787   4.489564
    18  Cl   5.668979   4.230748   4.336602   5.200348   5.142175
                   16         17         18
    16  H    0.000000
    17  H    5.278147   0.000000
    18  Cl   6.244019   1.286283   0.000000
 Stoichiometry    C7H8ClFO
 Framework group  C1[X(C7H8ClFO)]
 Deg. of freedom    48
 Full point group                 C1      NOp   1
 Largest Abelian subgroup         C1      NOp   1
 Largest concise Abelian subgroup C1      NOp   1
                         Standard orientation:                         
 ---------------------------------------------------------------------
 Center     Atomic      Atomic             Coordinates (Angstroms)
 Number     Number       Type             X           Y           Z
 ---------------------------------------------------------------------
      1          6           0       -0.782851   -0.605763   -0.007139
      2          6           0       -1.468221   -0.526240   -1.201472
      3          6           0       -2.843541   -0.374379   -1.201120
      4          6           0       -3.533105   -0.302107    0.000463
      5          6           0       -2.840244   -0.382500    1.207848
      6          6           0       -1.451355   -0.535858    1.207493
      7          9           0        0.557364   -0.753747   -0.007483
      8          1           0       -0.929551   -0.582697   -2.140119
      9          1           0       -3.381577   -0.311951   -2.138707
     10          1           0       -4.609678   -0.183234    0.000738
     11          1           0       -3.378425   -0.326094    2.145642
     12          1           0       -0.896580   -0.600103    2.135424
     13          8           0        3.506697   -1.079423   -0.003059
     14          6           0        4.698520   -1.211033    0.000167
     15          1           0        5.351907   -0.321593    0.003957
     16          1           0        5.142149   -2.221695   -0.002161
     17          1           0        1.131524    1.209590   -0.001126
     18         17           0        1.048539    2.493186    0.002984
 ---------------------------------------------------------------------
 Rotational constants (GHZ):           1.3461815           0.4597798           0.3892351

 **********************************************************************

            Population analysis using the SCF Density.

 **********************************************************************

 Orbital symmetries:
       Occupied  (A) (A) (A) (A) (A) (A) (A) (A) (A) (A) (A) (A)
                 (A) (A) (A) (A) (A) (A) (A) (A) (A) (A) (A) (A)
                 (A) (A) (A) (A) (A) (A) (A) (A) (A) (A) (A) (A)
                 (A) (A) (A) (A) (A) (A)
       Virtual   (A) (A) (A) (A) (A) (A) (A) (A) (A) (A) (A) (A)
                 (A) (A) (A) (A) (A) (A) (A) (A) (A) (A) (A) (A)
                 (A) (A) (A) (A) (A) (A) (A) (A) (A) (A) (A) (A)
                 (A) (A) (A) (A) (A) (A) (A) (A) (A) (A) (A) (A)
                 (A) (A) (A) (A) (A) (A) (A) (A) (A) (A) (A) (A)
                 (A) (A) (A) (A) (A) (A) (A) (A) (A) (A) (A) (A)
                 (A) (A) (A) (A) (A) (A) (A) (A) (A) (A) (A) (A)
                 (A) (A) (A) (A) (A) (A) (A) (A) (A) (A) (A) (A)
                 (A) (A) (A) (A) (A) (A) (A) (A) (A) (A) (A) (A)
                 (A) (A) (A) (A) (A) (A) (A) (A) (A) (A) (A) (A)
                 (A) (A) (A) (A) (A) (A) (A) (A) (A) (A) (A) (A)
                 (A) (A) (A) (A) (A) (A) (A) (A) (A) (A) (A) (A)
                 (A) (A) (A) (A) (A) (A) (A) (A) (A) (A) (A) (A)
                 (A) (A) (A) (A) (A) (A) (A) (A) (A) (A) (A) (A)
                 (A) (A) (A) (A) (A) (A) (A) (A) (A) (A) (A) (A)
                 (A) (A) (A) (A) (A) (A) (A) (A) (A) (A) (A) (A)
                 (A) (A) (A) (A) (A) (A) (A) (A) (A) (A) (A) (A)
                 (A) (A) (A) (A) (A) (A) (A) (A) (A) (A) (A) (A)
                 (A) (A) (A) (A) (A) (A) (A) (A) (A) (A) (A) (A)
                 (A) (A) (A) (A) (A) (A) (A) (A) (A) (A) (A) (A)
                 (A) (A)
 The electronic state is 1-A.
 Alpha  occ. eigenvalues -- -102.65826 -25.26251 -19.64456 -10.64008 -10.63561
 Alpha  occ. eigenvalues --  -10.55926 -10.55736 -10.55714 -10.55508 -10.55139
 Alpha  occ. eigenvalues --   -9.80146  -7.52635  -7.52008  -7.52007  -1.38197
 Alpha  occ. eigenvalues --   -1.19340  -0.97806  -0.92129  -0.86224  -0.85617
 Alpha  occ. eigenvalues --   -0.72558  -0.71728  -0.71012  -0.63791  -0.58664
 Alpha  occ. eigenvalues --   -0.58521  -0.58228  -0.57946  -0.53642  -0.52411
 Alpha  occ. eigenvalues --   -0.50717  -0.50596  -0.48978  -0.47683  -0.44465
 Alpha  occ. eigenvalues --   -0.43909  -0.41614  -0.37848  -0.37825  -0.34722
 Alpha  occ. eigenvalues --   -0.32258  -0.31107
 Alpha virt. eigenvalues --   -0.01039  -0.00169   0.00248   0.00636   0.01171
 Alpha virt. eigenvalues --    0.01588   0.01865   0.02500   0.03268   0.03665
 Alpha virt. eigenvalues --    0.04697   0.06511   0.06781   0.07342   0.07656
 Alpha virt. eigenvalues --    0.08750   0.09489   0.10095   0.10919   0.11069
 Alpha virt. eigenvalues --    0.11880   0.11989   0.12081   0.12677   0.13228
 Alpha virt. eigenvalues --    0.13494   0.13599   0.14217   0.14585   0.14802
 Alpha virt. eigenvalues --    0.15333   0.15798   0.16359   0.16794   0.17116
 Alpha virt. eigenvalues --    0.17502   0.17960   0.18535   0.20025   0.20729
 Alpha virt. eigenvalues --    0.21113   0.22299   0.22871   0.23364   0.24606
 Alpha virt. eigenvalues --    0.25747   0.25890   0.27876   0.28694   0.29944
 Alpha virt. eigenvalues --    0.30259   0.31517   0.31810   0.32949   0.33333
 Alpha virt. eigenvalues --    0.33764   0.35795   0.37680   0.38068   0.40132
 Alpha virt. eigenvalues --    0.40787   0.42368   0.42480   0.42874   0.47133
 Alpha virt. eigenvalues --    0.48897   0.50182   0.50735   0.51798   0.53373
 Alpha virt. eigenvalues --    0.54008   0.55076   0.56257   0.57825   0.57912
 Alpha virt. eigenvalues --    0.58496   0.59072   0.59207   0.59719   0.60614
 Alpha virt. eigenvalues --    0.61055   0.63723   0.64026   0.65456   0.67544
 Alpha virt. eigenvalues --    0.68865   0.70709   0.71367   0.73538   0.74753
 Alpha virt. eigenvalues --    0.76586   0.77709   0.81278   0.81758   0.83784
 Alpha virt. eigenvalues --    0.84917   0.88248   0.88475   0.90197   0.91170
 Alpha virt. eigenvalues --    0.92009   0.93388   0.94042   0.94435   0.98602
 Alpha virt. eigenvalues --    0.98662   1.00226   1.02435   1.04787   1.04993
 Alpha virt. eigenvalues --    1.05569   1.05840   1.05947   1.08551   1.12352
 Alpha virt. eigenvalues --    1.14933   1.15964   1.17333   1.18293   1.22810
 Alpha virt. eigenvalues --    1.23807   1.24847   1.33680   1.33763   1.43307
 Alpha virt. eigenvalues --    1.44014   1.47989   1.48330   1.49302   1.52908
 Alpha virt. eigenvalues --    1.53086   1.55406   1.55928   1.57707   1.60273
 Alpha virt. eigenvalues --    1.60945   1.61590   1.62636   1.65189   1.68364
 Alpha virt. eigenvalues --    1.68747   1.70290   1.70777   1.76338   1.76959
 Alpha virt. eigenvalues --    1.77149   1.77834   1.79870   1.86115   1.86762
 Alpha virt. eigenvalues --    1.89196   1.91949   1.94875   1.95486   1.96292
 Alpha virt. eigenvalues --    1.98840   1.99409   2.01408   2.04795   2.06841
 Alpha virt. eigenvalues --    2.10171   2.10946   2.16574   2.19064   2.25058
 Alpha virt. eigenvalues --    2.30341   2.31116   2.31581   2.35547   2.35720
 Alpha virt. eigenvalues --    2.43852   2.44318   2.46203   2.47720   2.48761
 Alpha virt. eigenvalues --    2.50220   2.52162   2.52920   2.62945   2.65482
 Alpha virt. eigenvalues --    2.66604   2.68857   2.71778   2.72752   2.73580
 Alpha virt. eigenvalues --    2.74011   2.76360   2.76546   2.79807   2.84674
 Alpha virt. eigenvalues --    2.85599   2.85808   2.89103   2.94573   2.94626
 Alpha virt. eigenvalues --    2.94800   2.98337   2.99095   3.14188   3.19027
 Alpha virt. eigenvalues --    3.26785   3.39641   3.39745   3.43203   3.49275
 Alpha virt. eigenvalues --    3.53260   3.55743   3.57069   3.66914   3.73369
 Alpha virt. eigenvalues --    3.79784   3.87649   3.94552   4.02403   4.02967
 Alpha virt. eigenvalues --    4.07859   4.09118   4.16856   4.20482   4.21684
 Alpha virt. eigenvalues --    4.86130   4.96495   5.10623   5.21655   5.78997
 Alpha virt. eigenvalues --    6.52841   6.59821   6.90714   9.98064  23.68403
 Alpha virt. eigenvalues --   23.99900  24.01847  24.05368  24.15930  24.17381
 Alpha virt. eigenvalues --   24.27953  25.93105  26.03875  26.17573  50.05101
 Alpha virt. eigenvalues --   66.95885 216.07873
          Condensed to atoms (all electrons):
               1          2          3          4          5          6
     1  C   14.446347  -6.531471   4.139021  -3.838308   4.033910  -5.869619
     2  C   -6.531471  15.473536  -4.753749   3.678543  -4.261107   1.823204
     3  C    4.139021  -4.753749  10.592643  -3.483665   3.984539  -4.238250
     4  C   -3.838308   3.678543  -3.483665   9.191924  -3.364868   3.499957
     5  C    4.033910  -4.261107   3.984539  -3.364868  10.282522  -4.438535
     6  C   -5.869619   1.823204  -4.238250   3.499957  -4.438535  14.675792
     7  F    0.835361  -0.565958   0.161771  -0.113846   0.158486  -0.545277
     8  H   -0.291936   0.706345  -0.213928   0.113131  -0.103099   0.091185
     9  H    0.078532  -0.075462   0.378178  -0.072821   0.028294  -0.008937
    10  H   -0.010868   0.012721  -0.028004   0.364336  -0.026055   0.012428
    11  H    0.068638  -0.006637   0.024999  -0.065592   0.371248  -0.066001
    12  H   -0.276366   0.096556  -0.104998   0.109064  -0.204383   0.682161
    13  O    0.026410  -0.006804   0.000181  -0.001095   0.000304  -0.006281
    14  C    0.008158  -0.008147   0.002804  -0.001057   0.002745  -0.007355
    15  H    0.000220   0.000131  -0.000497   0.000220  -0.000487   0.000046
    16  H   -0.002944   0.001575  -0.000263   0.000204  -0.000267   0.001483
    17  H   -0.088077   0.070495  -0.054840   0.050697  -0.053508   0.067606
    18  Cl   0.189093  -0.118744   0.069677  -0.063619   0.068050  -0.113238
               7          8          9         10         11         12
     1  C    0.835361  -0.291936   0.078532  -0.010868   0.068638  -0.276366
     2  C   -0.565958   0.706345  -0.075462   0.012721  -0.006637   0.096556
     3  C    0.161771  -0.213928   0.378178  -0.028004   0.024999  -0.104998
     4  C   -0.113846   0.113131  -0.072821   0.364336  -0.065592   0.109064
     5  C    0.158486  -0.103099   0.028294  -0.026055   0.371248  -0.204383
     6  C   -0.545277   0.091185  -0.008937   0.012428  -0.066001   0.682161
     7  F    9.230080  -0.032474   0.002439  -0.001064   0.002194  -0.032069
     8  H   -0.032474   0.502897  -0.007995   0.001839  -0.000072   0.004524
     9  H    0.002439  -0.007995   0.472386  -0.000044   0.000083  -0.000167
    10  H   -0.001064   0.001839  -0.000044   0.474012   0.000277   0.001746
    11  H    0.002194  -0.000072   0.000083   0.000277   0.471280  -0.006796
    12  H   -0.032069   0.004524  -0.000167   0.001746  -0.006796   0.500077
    13  O    0.006627   0.001227   0.000045  -0.000010   0.000043   0.001264
    14  C    0.001250  -0.001157   0.000036  -0.000009   0.000034  -0.001160
    15  H   -0.000343   0.000000  -0.000010   0.000002  -0.000010  -0.000005
    16  H   -0.000416   0.000162  -0.000009   0.000001  -0.000009   0.000168
    17  H    0.017094   0.002167  -0.001505   0.000516  -0.001426   0.002036
    18  Cl  -0.010061  -0.004231   0.001885  -0.000583   0.001784  -0.003986
              13         14         15         16         17         18
     1  C    0.026410   0.008158   0.000220  -0.002944  -0.088077   0.189093
     2  C   -0.006804  -0.008147   0.000131   0.001575   0.070495  -0.118744
     3  C    0.000181   0.002804  -0.000497  -0.000263  -0.054840   0.069677
     4  C   -0.001095  -0.001057   0.000220   0.000204   0.050697  -0.063619
     5  C    0.000304   0.002745  -0.000487  -0.000267  -0.053508   0.068050
     6  C   -0.006281  -0.007355   0.000046   0.001483   0.067606  -0.113238
     7  F    0.006627   0.001250  -0.000343  -0.000416   0.017094  -0.010061
     8  H    0.001227  -0.001157   0.000000   0.000162   0.002167  -0.004231
     9  H    0.000045   0.000036  -0.000010  -0.000009  -0.001505   0.001885
    10  H   -0.000010  -0.000009   0.000002   0.000001   0.000516  -0.000583
    11  H    0.000043   0.000034  -0.000010  -0.000009  -0.001426   0.001784
    12  H    0.001264  -0.001160  -0.000005   0.000168   0.002036  -0.003986
    13  O    8.117585   0.265519  -0.084258  -0.092172   0.007171  -0.004316
    14  C    0.265519   4.951092   0.379015   0.383471  -0.002509  -0.001114
    15  H   -0.084258   0.379015   0.729045  -0.137814   0.001874   0.001129
    16  H   -0.092172   0.383471  -0.137814   0.738014  -0.000041  -0.000044
    17  H    0.007171  -0.002509   0.001874  -0.000041   0.632330   0.251386
    18  Cl  -0.004316  -0.001114   0.001129  -0.000044   0.251386  16.844689
 Mulliken charges:
               1
     1  C   -0.916102
     2  C    0.464973
     3  C   -0.475620
     4  C   -0.003206
     5  C   -0.477789
     6  C    0.439630
     7  F   -0.113794
     8  H    0.231415
     9  H    0.205072
    10  H    0.198757
    11  H    0.205962
    12  H    0.232336
    13  O   -0.231441
    14  C    0.028385
    15  H    0.111742
    16  H    0.108901
    17  H    0.098535
    18  Cl  -0.107756
 Sum of Mulliken charges =  -0.00000
 Mulliken charges with hydrogens summed into heavy atoms:
               1
     1  C   -0.916102
     2  C    0.696388
     3  C   -0.270548
     4  C    0.195552
     5  C   -0.271827
     6  C    0.671965
     7  F   -0.113794
    13  O   -0.231441
    14  C    0.249028
    18  Cl  -0.009221
 Electronic spatial extent (au):  <R**2>=           2816.8709
 Charge=             -0.0000 electrons
 Dipole moment (field-independent basis, Debye):
    X=              0.6936    Y=             -1.8198    Z=             -0.0056  Tot=              1.9475
 Quadrupole moment (field-independent basis, Debye-Ang):
   XX=            -39.7869   YY=            -72.9444   ZZ=            -59.9756
   XY=             -5.4786   XZ=              0.0961   YZ=             -0.0452
 Traceless Quadrupole moment (field-independent basis, Debye-Ang):
   XX=             17.7821   YY=            -15.3754   ZZ=             -2.4067
   XY=             -5.4786   XZ=              0.0961   YZ=             -0.0452
 Octapole moment (field-independent basis, Debye-Ang**2):
  XXX=            121.4741  YYY=             -5.2553  ZZZ=             -0.1353  XYY=             22.7963
  XXY=            -28.2066  XXZ=             -0.1361  XZZ=             -2.0077  YZZ=             -4.4749
  YYZ=             -0.0555  XYZ=              0.0015
 Hexadecapole moment (field-independent basis, Debye-Ang**3):
 XXXX=          -1861.5493 YYYY=           -723.9730 ZZZZ=           -288.8659 XXXY=           -184.0452
 XXXZ=              0.6534 YYYX=            -53.9899 YYYZ=              0.2972 ZZZX=              0.3386
 ZZZY=             -0.1319 XXYY=           -560.8410 XXZZ=           -470.2940 YYZZ=           -185.0061
 XXYZ=             -0.1059 YYXZ=              0.1571 ZZXY=             -3.7705
 N-N= 5.321296194593D+02 E-N=-3.204621130359D+03  KE= 9.042144784558D+02
 1\1\GINC-R820\POpt\RM062X\6-311++G(d,p)\C7H8Cl1F1O1\ZJXU\09-Apr-2024\1
 \\# m062x 6-311++G(d,p) opt=(maxstep=5,notrust,maxcyc=50,z-matrix)\\te
 st\\0,1\C\C,1,d1\C,2,d2,1,120.\C,3,d3,2,120.,1,0.,0\C,4,d4,3,120.,2,0.
 ,0\C,5,d5,4,120.,3,0.,0\F,1,d6,2,120.,3,180.,0\H,2,d7,3,120.,4,180.,0\
 H,3,d8,4,120.,5,180.,0\H,4,d9,5,120.,6,180.,0\H,5,d10,6,120.,1,180.,0\
 H,6,d11,1,120.,2,180.,0\O,7,d12,1,179.9,3,180.,0\C,13,d13,1,179.9,2,18
 0.,0\H,14,d14,1,120.,2,90.,0\H,14,d15,1,120.,2,-90.,0\H,7,d16,1,100.,2
 ,90.,0\Cl,17,d17,7,160.,1,0.,0\\d1=1.37930654\d2=1.38367875\d3=1.38727
 111\d4=1.39438126\d5=1.39733079\d6=1.34836105\d7=1.08370254\d8=1.08279
 702\d9=1.08311651\d10=1.08271737\d11=1.08303265\d12=2.96726275\d13=1.1
 9907205\d14=1.10364565\d15=1.103743\d16=2.04557803\d17=1.28628284\\Ver
 sion=ES64L-G16RevB.01\State=1-A\HF=-906.72918\RMSD=6.218e-09\RMSF=3.62
 1e-03\Dipole=-0.3029099,-0.6816901,-0.1749597\Quadrupole=9.8401695,-12
 .0230473,2.1828779,1.1167738,6.7970289,0.6368116\PG=C01 [X(C7H8Cl1F1O1
 )]\\@


 GOD GAVE US TWO ENDS... ONE TO SIT ON...    
 AND THE OTHER TO THINK WITH...              
 YOUR SUCCESS DEPENDS UPON WHICH END YOU     
 USE THE MOST...                             
                                             
 IT'S A CASE OF HEADS YOU WIN TAILS YOU LOSE.
          SOURCE UNKNOWN(IT'S JUST AS WELL.) 
 Job cpu time:       0 days  4 hours 52 minutes 28.7 seconds.
 Elapsed time:       0 days  2 hours 26 minutes 19.0 seconds.
 File lengths (MBytes):  RWF=     54 Int=      0 D2E=      0 Chk=      8 Scr=      1
 Normal termination of Gaussian 16 at Tue Apr  9 12:35:30 2024.
