 Entering Gaussian System, Link 0=g16
 Input=model_H2b.gjf
 Output=model_H2b.log
 Initial command:
 /home/zjxu/prog/g16/l1.exe "/home/zjxu/zjhan/5_model/HCl/chloroform/Gau-53399.inp" -scrdir="/home/zjxu/zjhan/5_model/HCl/chloroform/"
 Entering Link 1 = /home/zjxu/prog/g16/l1.exe PID=     53400.
  
 Copyright (c) 1988-2017, Gaussian, Inc.  All Rights Reserved.
  
 This is part of the Gaussian(R) 16 program.  It is based on
 the Gaussian(R) 09 system (copyright 2009, Gaussian, Inc.),
 the Gaussian(R) 03 system (copyright 2003, Gaussian, Inc.),
 the Gaussian(R) 98 system (copyright 1998, Gaussian, Inc.),
 the Gaussian(R) 94 system (copyright 1995, Gaussian, Inc.),
 the Gaussian 92(TM) system (copyright 1992, Gaussian, Inc.),
 the Gaussian 90(TM) system (copyright 1990, Gaussian, Inc.),
 the Gaussian 88(TM) system (copyright 1988, Gaussian, Inc.),
 the Gaussian 86(TM) system (copyright 1986, Carnegie Mellon
 University), and the Gaussian 82(TM) system (copyright 1983,
 Carnegie Mellon University). Gaussian is a federally registered
 trademark of Gaussian, Inc.
  
 This software contains proprietary and confidential information,
 including trade secrets, belonging to Gaussian, Inc.
  
 This software is provided under written license and may be
 used, copied, transmitted, or stored only in accord with that
 written license.
  
 The following legend is applicable only to US Government
 contracts under FAR:
  
                    RESTRICTED RIGHTS LEGEND
  
 Use, reproduction and disclosure by the US Government is
 subject to restrictions as set forth in subparagraphs (a)
 and (c) of the Commercial Computer Software - Restricted
 Rights clause in FAR 52.227-19.
  
 Gaussian, Inc.
 340 Quinnipiac St., Bldg. 40, Wallingford CT 06492
  
  
 ---------------------------------------------------------------
 Warning -- This program may not be used in any manner that
 competes with the business of Gaussian, Inc. or will provide
 assistance to any competitor of Gaussian, Inc.  The licensee
 of this program is prohibited from giving any competitor of
 Gaussian, Inc. access to this program.  By using this program,
 the user acknowledges that Gaussian, Inc. is engaged in the
 business of creating and licensing software in the field of
 computational chemistry and represents and warrants to the
 licensee that it is not a competitor of Gaussian, Inc. and that
 it will not use this program in any manner prohibited above.
 ---------------------------------------------------------------
  

 Cite this work as:
 Gaussian 16, Revision B.01,
 M. J. Frisch, G. W. Trucks, H. B. Schlegel, G. E. Scuseria, 
 M. A. Robb, J. R. Cheeseman, G. Scalmani, V. Barone, 
 G. A. Petersson, H. Nakatsuji, X. Li, M. Caricato, A. V. Marenich, 
 J. Bloino, B. G. Janesko, R. Gomperts, B. Mennucci, H. P. Hratchian, 
 J. V. Ortiz, A. F. Izmaylov, J. L. Sonnenberg, D. Williams-Young, 
 F. Ding, F. Lipparini, F. Egidi, J. Goings, B. Peng, A. Petrone, 
 T. Henderson, D. Ranasinghe, V. G. Zakrzewski, J. Gao, N. Rega, 
 G. Zheng, W. Liang, M. Hada, M. Ehara, K. Toyota, R. Fukuda, 
 J. Hasegawa, M. Ishida, T. Nakajima, Y. Honda, O. Kitao, H. Nakai, 
 T. Vreven, K. Throssell, J. A. Montgomery, Jr., J. E. Peralta, 
 F. Ogliaro, M. J. Bearpark, J. J. Heyd, E. N. Brothers, K. N. Kudin, 
 V. N. Staroverov, T. A. Keith, R. Kobayashi, J. Normand, 
 K. Raghavachari, A. P. Rendell, J. C. Burant, S. S. Iyengar, 
 J. Tomasi, M. Cossi, J. M. Millam, M. Klene, C. Adamo, R. Cammi, 
 J. W. Ochterski, R. L. Martin, K. Morokuma, O. Farkas, 
 J. B. Foresman, and D. J. Fox, Gaussian, Inc., Wallingford CT, 2016.
 
 ******************************************
 Gaussian 16:  ES64L-G16RevB.01 20-Dec-2017
                 1-Apr-2024 
 ******************************************
 %mem=2GB
 %nproc=2
 Will use up to    2 processors via shared memory.
 %chk=model_H2b
 ------------------------------------------------------------
 # m062x 6-311++G(d,p) opt=z-matrix scrf=(solvent=chloroform)
 ------------------------------------------------------------
 1/10=7,18=40,26=3,38=1/1,3;
 2/12=2,17=6,18=5,29=3,40=1/2;
 3/5=4,6=6,7=1111,11=2,25=1,30=1,70=2201,71=1,72=7,74=-55/1,2,3;
 4//1;
 5/5=2,38=5,53=7/2;
 6/7=2,8=2,9=2,10=2,28=1/1;
 7/29=1/1,2,3,16;
 1/10=7,18=40,26=3/3(2);
 2/29=3/2;
 99//99;
 2/29=3/2;
 3/5=4,6=6,7=1111,11=2,25=1,30=1,70=2205,71=1,72=7,74=-55/1,2,3;
 4/5=5,16=3,69=1/1;
 5/5=2,38=5,53=7/2;
 7//1,2,3,16;
 1/18=40,26=3/3(-5);
 2/29=3/2;
 6/7=2,8=2,9=2,10=2,19=2,28=1/1;
 99/9=1/99;
 ----
 test
 ----
 Symbolic Z-matrix:
 Charge =  0 Multiplicity = 1
 C1
 C2                   1    d1
 C3                   2    d2       1     120. 
 C4                   3    d3       2     120.     1     0.       0
 C5                   4    d4       3     120.     2     0.       0
 C6                   5    d5       4     120.     3     0.       0
 F7                   1    d6       2     120.     3     180.     0
 H8                   2    d7       3     120.     4     180.     0
 H9                   3    d8       4     120.     5     180.     0
 H10                  4    d9       5     120.     6     180.     0
 H11                  5    d10      6     120.     1     180.     0
 H12                  6    d11      1     120.     2     180.     0
 O13                  7    d12      1     179.9    3     180.     0
 C14                  13   d13      1     179.9    2     180.     0
 H15                  14   d14      1     120.     2     90.      0
 H16                  14   d15      1     120.     2    -90.      0
 H17                  7    d16      1     100.     2     90.      0
 Cl18                 17   d17      7     160.     1     0.       0
 H19                  7    d18      1     100.     2    -90.      0
 Cl20                 19   d19      7     160.     1     0.       0
       Variables:
  d1                    1.3                      
  d2                    1.3                      
  d3                    1.3                      
  d4                    1.3                      
  d5                    1.3                      
  d6                    1.4                      
  d7                    1.                       
  d8                    1.                       
  d9                    1.                       
  d10                   1.                       
  d11                   1.                       
  d12                   2.8                      
  d13                   1.2                      
  d14                   1.                       
  d15                   1.                       
  d16                   2.3                      
  d17                   0.9                      
  d18                   2.3                      
  d19                   0.9                      
 

 GradGradGradGradGradGradGradGradGradGradGradGradGradGradGradGradGradGrad
 Berny optimization.
 Initialization pass.
                       ----------------------------
                       !    Initial Parameters    !
                       ! (Angstroms and Degrees)  !
 ----------------------                            ----------------------
 !      Name          Value   Derivative information (Atomic Units)     !
 ------------------------------------------------------------------------
 !       d1          1.3      estimate D2E/DX2                          !
 !       d2          1.3      estimate D2E/DX2                          !
 !       d3          1.3      estimate D2E/DX2                          !
 !       d4          1.3      estimate D2E/DX2                          !
 !       d5          1.3      estimate D2E/DX2                          !
 !       d6          1.4      estimate D2E/DX2                          !
 !       d7          1.0      estimate D2E/DX2                          !
 !       d8          1.0      estimate D2E/DX2                          !
 !       d9          1.0      estimate D2E/DX2                          !
 !       d10         1.0      estimate D2E/DX2                          !
 !       d11         1.0      estimate D2E/DX2                          !
 !       d12         2.8      estimate D2E/DX2                          !
 !       d13         1.2      estimate D2E/DX2                          !
 !       d14         1.0      estimate D2E/DX2                          !
 !       d15         1.0      estimate D2E/DX2                          !
 !       d16         2.3      estimate D2E/DX2                          !
 !       d17         0.9      estimate D2E/DX2                          !
 !       d18         2.3      estimate D2E/DX2                          !
 !       d19         0.9      estimate D2E/DX2                          !
 ------------------------------------------------------------------------
 Trust Radius=3.00D-01 FncErr=1.00D-07 GrdErr=1.00D-06 EigMax=2.50D+02 EigMin=1.00D-04
 Number of steps in this run=     29 maximum allowed number of steps=    100.
 GradGradGradGradGradGradGradGradGradGradGradGradGradGradGradGradGradGrad

 ---------------------------------------------------------------------------------------------------
                            Z-MATRIX (ANGSTROMS AND DEGREES)
   CD    Cent   Atom    N1       Length/X        N2       Alpha/Y        N3        Beta/Z          J
 ---------------------------------------------------------------------------------------------------
      1      1  C 
      2      2  C        1   1.300000(     1)
      3      3  C        2   1.300000(     2)      1  120.000(    20)
      4      4  C        3   1.300000(     3)      2  120.000(    21)      1    0.000(    38)      0
      5      5  C        4   1.300000(     4)      3  120.000(    22)      2    0.000(    39)      0
      6      6  C        5   1.300000(     5)      4  120.000(    23)      3    0.000(    40)      0
      7      7  F        1   1.400000(     6)      2  120.000(    24)      3  180.000(    41)      0
      8      8  H        2   1.000000(     7)      3  120.000(    25)      4  180.000(    42)      0
      9      9  H        3   1.000000(     8)      4  120.000(    26)      5  180.000(    43)      0
     10     10  H        4   1.000000(     9)      5  120.000(    27)      6  180.000(    44)      0
     11     11  H        5   1.000000(    10)      6  120.000(    28)      1  180.000(    45)      0
     12     12  H        6   1.000000(    11)      1  120.000(    29)      2  180.000(    46)      0
     13     13  O        7   2.800000(    12)      1  179.900(    30)      3  180.000(    47)      0
     14     14  C       13   1.200000(    13)      1  179.900(    31)      2  180.000(    48)      0
     15     15  H       14   1.000000(    14)      1  120.000(    32)      2   90.000(    49)      0
     16     16  H       14   1.000000(    15)      1  120.000(    33)      2  -90.000(    50)      0
     17     17  H        7   2.300000(    16)      1  100.000(    34)      2   90.000(    51)      0
     18     18  Cl      17   0.900000(    17)      7  160.000(    35)      1    0.000(    52)      0
     19     19  H        7   2.300000(    18)      1  100.000(    36)      2  -90.000(    53)      0
     20     20  Cl      19   0.900000(    19)      7  160.000(    37)      1    0.000(    54)      0
 ---------------------------------------------------------------------------------------------------
                         Z-Matrix orientation:                         
 ---------------------------------------------------------------------
 Center     Atomic      Atomic             Coordinates (Angstroms)
 Number     Number       Type             X           Y           Z
 ---------------------------------------------------------------------
      1          6           0        0.000000    0.000000    0.000000
      2          6           0        0.000000    0.000000    1.300000
      3          6           0        1.125833    0.000000    1.950000
      4          6           0        2.251666    0.000000    1.300000
      5          6           0        2.251666    0.000000   -0.000000
      6          6           0        1.125833    0.000000   -0.650000
      7          9           0       -1.212436   -0.000000   -0.700000
      8          1           0       -0.866025   -0.000000    1.800000
      9          1           0        1.125833   -0.000000    2.950000
     10          1           0        3.117691   -0.000000    1.800000
     11          1           0        3.117691   -0.000000   -0.500000
     12          1           0        1.125833   -0.000000   -1.650000
     13          8           0       -3.634860   -0.000000   -2.104230
     14          6           0       -4.672340   -0.000000   -2.707251
     15          1           0       -5.104965    0.866025   -2.957922
     16          1           0       -5.104965   -0.866025   -2.957922
     17          1           0       -1.558318    2.265058   -0.899695
     18         17           0       -1.422973    3.151385   -0.821554
     19          1           0       -1.558318   -2.265058   -0.899695
     20         17           0       -1.422973   -3.151385   -0.821554
 ---------------------------------------------------------------------
                    Distance matrix (angstroms):
                    1          2          3          4          5
     1  C    0.000000
     2  C    1.300000   0.000000
     3  C    2.251666   1.300000   0.000000
     4  C    2.600000   2.251666   1.300000   0.000000
     5  C    2.251666   2.600000   2.251666   1.300000   0.000000
     6  C    1.300000   2.251666   2.600000   2.251666   1.300000
     7  F    1.400000   2.338803   3.534119   4.000000   3.534119
     8  H    1.997498   1.000000   1.997498   3.157531   3.600000
     9  H    3.157531   1.997498   1.000000   1.997498   3.157531
    10  H    3.600000   3.157531   1.997498   1.000000   1.997498
    11  H    3.157531   3.600000   3.157531   1.997498   1.000000
    12  H    1.997498   3.157531   3.600000   3.157531   1.997498
    13  O    4.199999   4.980059   6.253077   6.799997   6.251317
    14  C    5.399997   6.155390   7.436988   7.999995   7.434452
    15  H    5.963218   6.703772   7.978755   8.543999   7.976172
    16  H    5.963218   6.703772   7.978755   8.543999   7.976172
    17  H    2.892800   3.521009   4.522822   4.948245   4.522822
    18  Cl   3.554016   4.056731   4.910107   5.285375   4.910107
    19  H    2.892800   3.521009   4.522822   4.948245   4.522822
    20  Cl   3.554016   4.056731   4.910107   5.285375   4.910107
                    6          7          8          9         10
     6  C    0.000000
     7  F    2.338803   0.000000
     8  H    3.157531   2.523886   0.000000
     9  H    3.600000   4.334743   2.300000   0.000000
    10  H    3.157531   5.000000   3.983717   2.300000   0.000000
    11  H    1.997498   4.334743   4.600000   3.983717   2.300000
    12  H    1.000000   2.523886   3.983717   4.600000   3.983717
    13  O    4.977849   2.800000   4.786382   6.943301   7.799997
    14  C    6.152324   3.999999   5.899436   8.100821   8.999995
    15  H    6.700697   4.582575   6.430896   8.629970   9.539387
    16  H    6.700697   4.582575   6.430896   8.629970   9.539387
    17  H    3.521009   2.300000   3.591394   5.211076   5.855246
    18  Cl   4.056731   3.160748   4.136902   5.536448   6.117303
    19  H    3.521009   2.300000   3.591394   5.211076   5.855246
    20  Cl   4.056731   3.160748   4.136902   5.536448   6.117303
                   11         12         13         14         15
    11  H    0.000000
    12  H    2.300000   0.000000
    13  O    6.940497   4.782313   0.000000
    14  C    8.096700   5.893776   1.200000   0.000000
    15  H    8.625744   6.425224   1.907878   1.000000   0.000000
    16  H    8.625744   6.425224   1.907878   1.000000   1.732051
    17  H    5.211076   3.591394   3.300517   4.253807   4.332700
    18  Cl   5.536448   4.136902   4.058193   4.903618   4.831563
    19  H    5.211076   3.591394   3.300517   4.253807   5.159329
    20  Cl   5.536448   4.136902   4.058193   4.903618   5.853266
                   16         17         18         19         20
    16  H    0.000000
    17  H    5.159329   0.000000
    18  Cl   5.853266   0.900000   0.000000
    19  H    4.332700   4.530116   5.418697   0.000000
    20  Cl   4.831563   5.418697   6.302770   0.900000   0.000000
 Stoichiometry    C7H9Cl2FO
 Framework group  CS[SG(C7H5FO),X(H4Cl2)]
 Deg. of freedom    34
 Full point group                 CS      NOp   2
 Largest Abelian subgroup         CS      NOp   2
 Largest concise Abelian subgroup CS      NOp   2
                         Standard orientation:                         
 ---------------------------------------------------------------------
 Center     Atomic      Atomic             Coordinates (Angstroms)
 Number     Number       Type             X           Y           Z
 ---------------------------------------------------------------------
      1          6           0       -0.001056   -0.924160    0.000000
      2          6           0       -1.126889   -1.574160    0.000000
      3          6           0       -1.126889   -2.874160    0.000000
      4          6           0       -0.001056   -3.524160    0.000000
      5          6           0        1.124777   -2.874160    0.000000
      6          6           0        1.124777   -1.574160    0.000000
      7          9           0       -0.001056    0.475840    0.000000
      8          1           0       -1.992914   -1.074160    0.000000
      9          1           0       -1.992914   -3.374160    0.000000
     10          1           0       -0.001056   -4.524160    0.000000
     11          1           0        1.990803   -3.374160    0.000000
     12          1           0        1.990803   -1.074160    0.000000
     13          8           0        0.003831    3.275836    0.000000
     14          6           0        0.007322    4.475831    0.000000
     15          1           0        0.008098    4.975830    0.866025
     16          1           0        0.008098    4.975830   -0.866025
     17          1           0       -0.001056    0.875231    2.265058
     18         17           0       -0.001056    0.718947    3.151385
     19          1           0       -0.001056    0.875231   -2.265058
     20         17           0       -0.001056    0.718947   -3.151385
 ---------------------------------------------------------------------
 Rotational constants (GHZ):           0.6452293           0.4842512           0.3020406
 Standard basis: 6-311++G(d,p) (5D, 7F)
 There are   228 symmetry adapted cartesian basis functions of A'  symmetry.
 There are   104 symmetry adapted cartesian basis functions of A"  symmetry.
 There are   218 symmetry adapted basis functions of A'  symmetry.
 There are   103 symmetry adapted basis functions of A"  symmetry.
   321 basis functions,   511 primitive gaussians,   332 cartesian basis functions
    51 alpha electrons       51 beta electrons
       nuclear repulsion energy       744.8802280448 Hartrees.
 NAtoms=   20 NActive=   20 NUniq=   17 SFac= 1.38D+00 NAtFMM=   60 NAOKFM=F Big=F
 Integral buffers will be    131072 words long.
 Raffenetti 2 integral format.
 Two-electron integral symmetry is turned on.
 ------------------------------------------------------------------------------
 Polarizable Continuum Model (PCM)
 =================================
 Model                : PCM.
 Atomic radii         : UFF (Universal Force Field).
 Polarization charges : Total charges.
 Charge compensation  : None.
 Solution method      : On-the-fly selection.
 Cavity type          : Scaled VdW (van der Waals Surface) (Alpha=1.100).
 Cavity algorithm     : GePol (No added spheres)
                        Default sphere list used, NSphG=   20.
                        Lebedev-Laikov grids with approx.  5.0 points / Ang**2.
                        Smoothing algorithm: York/Karplus (Gamma=1.0000).
                        Polarization charges: spherical gaussians, with
                                              point-specific exponents (IZeta= 3).
                        Self-potential: point-specific (ISelfS= 7).
                        Self-field    : sphere-specific E.n sum rule (ISelfD= 2).
 1st derivatives      : Analytical E(r).r(x)/FMM algorithm (CHGder, D1EAlg=3).
                        Cavity 1st derivative terms included.
 Solvent              : Chloroform, Eps=   4.711300 Eps(inf)=   2.090627
 ------------------------------------------------------------------------------
 Spheres list:
 ISph  on   Nord     Re0    Alpha      Xe            Ye            Ze
    1   C      1    1.9255  1.100     -0.001056     -0.924160      0.000000
    2   C      2    1.9255  1.100     -1.126889     -1.574160      0.000000
    3   C      3    1.9255  1.100     -1.126889     -2.874160      0.000000
    4   C      4    1.9255  1.100     -0.001056     -3.524160      0.000000
    5   C      5    1.9255  1.100      1.124777     -2.874160      0.000000
    6   C      6    1.9255  1.100      1.124777     -1.574160      0.000000
    7   F      7    1.6820  1.100     -0.001056      0.475840      0.000000
    8   H      8    1.4430  1.100     -1.992914     -1.074160      0.000000
    9   H      9    1.4430  1.100     -1.992914     -3.374160      0.000000
   10   H     10    1.4430  1.100     -0.001056     -4.524160      0.000000
   11   H     11    1.4430  1.100      1.990803     -3.374160      0.000000
   12   H     12    1.4430  1.100      1.990803     -1.074160      0.000000
   13   O     13    1.7500  1.100      0.003831      3.275836      0.000000
   14   C     14    1.9255  1.100      0.007322      4.475831      0.000000
   15   H     15    1.4430  1.100      0.008098      4.975830      0.866025
   16   H     16    1.4430  1.100      0.008098      4.975830     -0.866025
   17   H     17    1.4430  1.100     -0.001056      0.875231      2.265058
   18  Cl     18    1.9735  1.100     -0.001056      0.718947      3.151385
   19   H     19    1.4430  1.100     -0.001056      0.875231     -2.265058
   20  Cl     20    1.9735  1.100     -0.001056      0.718947     -3.151385
 ------------------------------------------------------------------------------
 One-electron integrals computed using PRISM.
 NBasis=   321 RedAO= T EigKep=  3.67D-06  NBF=   218   103
 NBsUse=   320 1.00D-06 EigRej=  3.75D-07 NBFU=   217   103
 ExpMin= 3.60D-02 ExpMax= 1.06D+05 ExpMxC= 3.62D+03 IAcc=3 IRadAn=         5 AccDes= 0.00D+00
 Harris functional with IExCor= 1009 and IRadAn=       5 diagonalized for initial guess.
 HarFok:  IExCor= 1009 AccDes= 0.00D+00 IRadAn=         5 IDoV= 1 UseB2=F ITyADJ=14
 ICtDFT=  3500011 ScaDFX=  1.000000  1.000000  1.000000  1.000000
 FoFCou: FMM=F IPFlag=           0 FMFlag=      100000 FMFlg1=           0
         NFxFlg=           0 DoJE=T BraDBF=F KetDBF=T FulRan=T
         wScrn=  0.000000 ICntrl=       500 IOpCl=  0 I1Cent=   200000004 NGrid=           0
         NMat0=    1 NMatS0=      1 NMatT0=    0 NMatD0=    1 NMtDS0=    0 NMtDT0=    0
 Petite list used in FoFCou.
 Initial guess orbital symmetries:
       Occupied  (A") (A') (A') (A') (A') (A') (A') (A') (A') (A')
                 (A') (A") (A') (A') (A") (A') (A") (A') (A") (A')
                 (A') (A') (A") (A') (A') (A') (A') (A') (A') (A')
                 (A') (A") (A') (A') (A') (A') (A") (A') (A') (A")
                 (A') (A') (A") (A') (A") (A") (A") (A') (A") (A')
                 (A")
       Virtual   (A') (A") (A") (A') (A') (A') (A') (A') (A") (A')
                 (A") (A') (A") (A') (A') (A") (A') (A') (A") (A")
                 (A') (A') (A') (A') (A') (A") (A") (A') (A') (A')
                 (A') (A") (A') (A') (A') (A") (A") (A') (A") (A')
                 (A') (A") (A') (A') (A") (A') (A') (A") (A') (A')
                 (A') (A") (A') (A') (A') (A') (A') (A') (A') (A")
                 (A') (A') (A') (A') (A') (A") (A') (A') (A') (A')
                 (A') (A') (A") (A') (A") (A') (A') (A") (A') (A")
                 (A") (A') (A') (A') (A') (A') (A') (A') (A") (A")
                 (A") (A') (A") (A") (A') (A") (A') (A') (A') (A")
                 (A') (A") (A') (A') (A') (A') (A") (A') (A') (A')
                 (A') (A') (A") (A') (A') (A") (A') (A") (A") (A')
                 (A') (A') (A") (A") (A') (A") (A') (A') (A") (A')
                 (A') (A") (A") (A') (A") (A') (A') (A") (A') (A')
                 (A') (A") (A') (A') (A') (A') (A") (A') (A") (A")
                 (A') (A') (A") (A') (A') (A") (A') (A") (A') (A")
                 (A") (A') (A') (A") (A') (A') (A') (A') (A') (A")
                 (A") (A") (A') (A') (A") (A') (A') (A') (A") (A')
                 (A") (A') (A") (A') (A') (A") (A") (A') (A') (A')
                 (A") (A") (A') (A') (A") (A') (A') (A') (A") (A')
                 (A") (A') (A') (A") (A') (A') (A') (A") (A') (A')
                 (A") (A') (A") (A") (A') (A') (A') (A") (A') (A')
                 (A') (A') (A') (A') (A") (A') (A') (A") (A') (A')
                 (A') (A") (A') (A") (A") (A') (A') (A') (A') (A')
                 (A') (A') (A') (A') (A') (A") (A') (A") (A') (A')
                 (A') (A") (A') (A') (A') (A') (A') (A') (A') (A")
                 (A') (A") (A') (A") (A') (A') (A') (A') (A")
 The electronic state of the initial guess is 1-A'.
 Requested convergence on RMS density matrix=1.00D-08 within 128 cycles.
 Requested convergence on MAX density matrix=1.00D-06.
 Requested convergence on             energy=1.00D-06.
 No special actions if energy rises.
 Inv3:  Mode=1 IEnd=    12484800.
 Iteration    1 A*A^-1 deviation from unit magnitude is 7.55D-15 for   2034.
 Iteration    1 A*A^-1 deviation from orthogonality  is 1.75D-15 for   2034   1924.
 Iteration    1 A^-1*A deviation from unit magnitude is 7.33D-15 for   2034.
 Iteration    1 A^-1*A deviation from orthogonality  is 1.39D-15 for    701    609.
 Error on total polarization charges =  0.01280
 SCF Done:  E(RM062X) =  -1367.05871500     A.U. after   14 cycles
            NFock= 14  Conv=0.33D-08     -V/T= 1.9988

 **********************************************************************

            Population analysis using the SCF Density.

 **********************************************************************

 Orbital symmetries:
       Occupied  (A") (A') (A') (A') (A') (A') (A') (A') (A') (A')
                 (A') (A") (A') (A') (A") (A') (A") (A') (A") (A')
                 (A') (A") (A') (A') (A') (A') (A') (A') (A') (A')
                 (A") (A") (A') (A') (A') (A") (A') (A') (A') (A')
                 (A") (A') (A') (A') (A') (A") (A") (A') (A") (A")
                 (A")
       Virtual   (A') (A') (A') (A') (A") (A') (A") (A") (A') (A')
                 (A") (A') (A") (A') (A") (A') (A') (A") (A') (A')
                 (A') (A") (A") (A') (A') (A') (A') (A') (A') (A")
                 (A') (A") (A") (A') (A") (A') (A') (A') (A') (A")
                 (A') (A') (A') (A") (A') (A') (A") (A') (A') (A")
                 (A') (A") (A') (A') (A') (A') (A") (A') (A') (A')
                 (A') (A') (A") (A') (A') (A') (A') (A') (A') (A')
                 (A") (A") (A') (A') (A") (A') (A') (A') (A') (A')
                 (A") (A") (A') (A') (A") (A') (A") (A') (A') (A")
                 (A") (A') (A") (A') (A') (A") (A') (A") (A') (A')
                 (A") (A') (A') (A') (A') (A') (A") (A') (A') (A')
                 (A') (A') (A") (A") (A') (A') (A') (A") (A') (A')
                 (A') (A') (A") (A") (A') (A') (A') (A") (A') (A")
                 (A") (A") (A") (A') (A") (A") (A') (A') (A') (A')
                 (A') (A") (A') (A') (A") (A') (A') (A') (A') (A")
                 (A") (A') (A") (A") (A') (A') (A') (A") (A") (A')
                 (A') (A") (A') (A") (A') (A') (A') (A") (A') (A')
                 (A") (A") (A') (A') (A") (A') (A') (A') (A") (A')
                 (A') (A") (A") (A') (A') (A") (A') (A") (A') (A")
                 (A') (A") (A') (A') (A") (A') (A') (A') (A') (A")
                 (A') (A') (A') (A') (A") (A') (A') (A') (A") (A")
                 (A') (A") (A") (A") (A') (A') (A') (A") (A') (A')
                 (A') (A') (A') (A") (A') (A") (A') (A') (A') (A')
                 (A') (A") (A') (A") (A") (A') (A') (A') (A') (A')
                 (A') (A') (A') (A') (A') (A") (A') (A") (A') (A')
                 (A') (A") (A') (A') (A') (A') (A') (A') (A') (A")
                 (A') (A") (A') (A") (A') (A') (A') (A') (A")
 The electronic state is 1-A'.
 Alpha  occ. eigenvalues -- -102.64613-102.64612 -25.25308 -19.63858 -10.61590
 Alpha  occ. eigenvalues --  -10.61318 -10.52454 -10.52451 -10.52206 -10.52194
 Alpha  occ. eigenvalues --  -10.51488  -9.81104  -9.81104  -7.53823  -7.53823
 Alpha  occ. eigenvalues --   -7.52651  -7.52651  -7.52651  -7.52651  -1.35880
 Alpha  occ. eigenvalues --   -1.19032  -1.03517  -1.03486  -1.03180  -0.89369
 Alpha  occ. eigenvalues --   -0.88475  -0.75048  -0.73832  -0.72391  -0.66446
 Alpha  occ. eigenvalues --   -0.60525  -0.59417  -0.59122  -0.58963  -0.58176
 Alpha  occ. eigenvalues --   -0.55972  -0.53957  -0.53458  -0.52585  -0.50047
 Alpha  occ. eigenvalues --   -0.47799  -0.47422  -0.44527  -0.42121  -0.40596
 Alpha  occ. eigenvalues --   -0.40580  -0.40559  -0.40545  -0.34985  -0.33887
 Alpha  occ. eigenvalues --   -0.32853
 Alpha virt. eigenvalues --   -0.00564  -0.00133   0.00817   0.01463   0.01753
 Alpha virt. eigenvalues --    0.02284   0.02505   0.03215   0.03594   0.03903
 Alpha virt. eigenvalues --    0.04390   0.05297   0.06894   0.06918   0.07573
 Alpha virt. eigenvalues --    0.07621   0.07693   0.08984   0.10394   0.10881
 Alpha virt. eigenvalues --    0.11518   0.11530   0.11539   0.11890   0.12876
 Alpha virt. eigenvalues --    0.13456   0.13859   0.13881   0.14178   0.14199
 Alpha virt. eigenvalues --    0.14850   0.15182   0.16227   0.16297   0.16342
 Alpha virt. eigenvalues --    0.16511   0.17417   0.17654   0.18492   0.19195
 Alpha virt. eigenvalues --    0.20182   0.20937   0.21727   0.22714   0.22754
 Alpha virt. eigenvalues --    0.23386   0.23400   0.24160   0.25314   0.26378
 Alpha virt. eigenvalues --    0.26524   0.28615   0.28877   0.30741   0.32265
 Alpha virt. eigenvalues --    0.32764   0.32898   0.33368   0.34356   0.36272
 Alpha virt. eigenvalues --    0.36657   0.37715   0.39504   0.41186   0.41497
 Alpha virt. eigenvalues --    0.42106   0.42874   0.43488   0.45663   0.45862
 Alpha virt. eigenvalues --    0.48179   0.50064   0.50260   0.50766   0.51796
 Alpha virt. eigenvalues --    0.53342   0.54871   0.55358   0.56176   0.58569
 Alpha virt. eigenvalues --    0.58840   0.59360   0.59590   0.61000   0.61409
 Alpha virt. eigenvalues --    0.61828   0.63369   0.63820   0.65196   0.65401
 Alpha virt. eigenvalues --    0.66416   0.67025   0.69226   0.70305   0.70711
 Alpha virt. eigenvalues --    0.72092   0.73548   0.76106   0.76868   0.77466
 Alpha virt. eigenvalues --    0.78928   0.80594   0.81570   0.82306   0.85467
 Alpha virt. eigenvalues --    0.86483   0.88278   0.89318   0.90050   0.90972
 Alpha virt. eigenvalues --    0.91241   0.93296   0.93444   0.94802   0.97140
 Alpha virt. eigenvalues --    1.00947   1.01644   1.01905   1.02414   1.02702
 Alpha virt. eigenvalues --    1.06369   1.06919   1.07933   1.08172   1.11621
 Alpha virt. eigenvalues --    1.11889   1.15908   1.16108   1.17225   1.18193
 Alpha virt. eigenvalues --    1.22499   1.23955   1.25276   1.26996   1.28535
 Alpha virt. eigenvalues --    1.34178   1.34931   1.35243   1.36788   1.43029
 Alpha virt. eigenvalues --    1.52317   1.52701   1.53583   1.55764   1.59469
 Alpha virt. eigenvalues --    1.60963   1.61653   1.64685   1.65528   1.67566
 Alpha virt. eigenvalues --    1.68240   1.70080   1.71595   1.74070   1.76495
 Alpha virt. eigenvalues --    1.76752   1.79628   1.80611   1.82009   1.82548
 Alpha virt. eigenvalues --    1.85409   1.85682   1.86932   1.88134   1.90822
 Alpha virt. eigenvalues --    1.94495   1.94708   1.97240   1.99075   2.04470
 Alpha virt. eigenvalues --    2.04708   2.05658   2.06005   2.08093   2.11512
 Alpha virt. eigenvalues --    2.16215   2.17200   2.17468   2.18456   2.19915
 Alpha virt. eigenvalues --    2.21567   2.21742   2.28026   2.29899   2.31539
 Alpha virt. eigenvalues --    2.32379   2.34022   2.37056   2.37564   2.40843
 Alpha virt. eigenvalues --    2.40899   2.46540   2.48682   2.50763   2.50961
 Alpha virt. eigenvalues --    2.58595   2.65261   2.67128   2.70830   2.72485
 Alpha virt. eigenvalues --    2.75383   2.77114   2.78452   2.79919   2.80502
 Alpha virt. eigenvalues --    2.81506   2.86566   2.86704   2.88071   2.90158
 Alpha virt. eigenvalues --    2.90983   2.96519   2.98325   2.98844   3.03446
 Alpha virt. eigenvalues --    3.08826   3.11924   3.24537   3.27291   3.35344
 Alpha virt. eigenvalues --    3.39836   3.41944   3.46455   3.47129   3.55444
 Alpha virt. eigenvalues --    3.60170   3.61749   3.64922   3.75230   3.76378
 Alpha virt. eigenvalues --    3.87561   3.88556   4.00426   4.00503   4.04864
 Alpha virt. eigenvalues --    4.09584   4.14272   4.17980   4.19324   4.26144
 Alpha virt. eigenvalues --    4.26706   4.37080   4.95640   4.95760   5.11625
 Alpha virt. eigenvalues --    5.24727   5.82759   6.56871   6.62364   6.90767
 Alpha virt. eigenvalues --   10.31250  10.33949  23.73443  24.17433  24.27128
 Alpha virt. eigenvalues --   24.31686  24.54306  24.57401  24.73011  25.88605
 Alpha virt. eigenvalues --   25.94349  26.00989  26.07379  27.13526  27.14826
 Alpha virt. eigenvalues --   50.07278  66.97906 216.52041 216.56256
          Condensed to atoms (all electrons):
               1          2          3          4          5          6
     1  C   13.574666  -1.465539  -2.383861   0.107556  -2.385857  -1.478464
     2  C   -1.465539  13.938205   2.041314  -0.958402  -0.689586  -7.177674
     3  C   -2.383861   2.041314   6.622378   0.176522   0.086377  -0.688598
     4  C    0.107556  -0.958402   0.176522   7.564642   0.178220  -0.954165
     5  C   -2.385857  -0.689586   0.086377   0.178220   6.622301   2.043061
     6  C   -1.478464  -7.177674  -0.688598  -0.954165   2.043061  13.944511
     7  F    0.713105  -0.296134  -0.062759  -0.013915  -0.063251  -0.297132
     8  H   -0.133205   0.555682  -0.046458  -0.033633   0.028002  -0.041603
     9  H    0.005114  -0.025743   0.411913  -0.136530   0.008062   0.065975
    10  H    0.037265  -0.023486  -0.069835   0.513625  -0.069870  -0.023347
    11  H    0.005280   0.065974   0.008069  -0.136413   0.411931  -0.026033
    12  H   -0.132949  -0.040960   0.028130  -0.033974  -0.046693   0.555142
    13  O    0.076071  -0.023557  -0.001538  -0.002295  -0.001541  -0.023746
    14  C   -0.006352   0.001445   0.000849  -0.000143   0.000844   0.001392
    15  H   -0.000022  -0.000219  -0.000109   0.000171  -0.000110  -0.000220
    16  H   -0.000022  -0.000219  -0.000109   0.000171  -0.000110  -0.000220
    17  H    0.009027  -0.008523  -0.012591   0.027393  -0.012539  -0.009130
    18  Cl  -0.044785   0.024815   0.015380  -0.029671   0.015356   0.025539
    19  H    0.009027  -0.008523  -0.012591   0.027393  -0.012539  -0.009130
    20  Cl  -0.044785   0.024815   0.015380  -0.029671   0.015356   0.025539
               7          8          9         10         11         12
     1  C    0.713105  -0.133205   0.005114   0.037265   0.005280  -0.132949
     2  C   -0.296134   0.555682  -0.025743  -0.023486   0.065974  -0.040960
     3  C   -0.062759  -0.046458   0.411913  -0.069835   0.008069   0.028130
     4  C   -0.013915  -0.033633  -0.136530   0.513625  -0.136413  -0.033974
     5  C   -0.063251   0.028002   0.008062  -0.069870   0.411931  -0.046693
     6  C   -0.297132  -0.041603   0.065975  -0.023347  -0.026033   0.555142
     7  F    9.233800  -0.020253  -0.000288   0.001050  -0.000287  -0.020203
     8  H   -0.020253   0.500816  -0.010786  -0.000078   0.003410  -0.003135
     9  H   -0.000288  -0.010786   0.478652  -0.012689   0.001467   0.003421
    10  H    0.001050  -0.000078  -0.012689   0.486556  -0.012692  -0.000078
    11  H   -0.000287   0.003410   0.001467  -0.012692   0.478637  -0.010793
    12  H   -0.020203  -0.003135   0.003421  -0.000078  -0.010793   0.500959
    13  O    0.000017   0.001457   0.000110  -0.000010   0.000110   0.001466
    14  C    0.000439   0.000100   0.000011   0.000001   0.000011   0.000107
    15  H   -0.000012  -0.000090  -0.000011   0.000000  -0.000012  -0.000088
    16  H   -0.000012  -0.000090  -0.000011   0.000000  -0.000012  -0.000088
    17  H    0.003768   0.000116  -0.001283   0.000060  -0.001272   0.000022
    18  Cl   0.003733   0.003558   0.001262  -0.000018   0.001255   0.003626
    19  H    0.003768   0.000116  -0.001283   0.000060  -0.001272   0.000022
    20  Cl   0.003733   0.003558   0.001262  -0.000018   0.001255   0.003626
              13         14         15         16         17         18
     1  C    0.076071  -0.006352  -0.000022  -0.000022   0.009027  -0.044785
     2  C   -0.023557   0.001445  -0.000219  -0.000219  -0.008523   0.024815
     3  C   -0.001538   0.000849  -0.000109  -0.000109  -0.012591   0.015380
     4  C   -0.002295  -0.000143   0.000171   0.000171   0.027393  -0.029671
     5  C   -0.001541   0.000844  -0.000110  -0.000110  -0.012539   0.015356
     6  C   -0.023746   0.001392  -0.000220  -0.000220  -0.009130   0.025539
     7  F    0.000017   0.000439  -0.000012  -0.000012   0.003768   0.003733
     8  H    0.001457   0.000100  -0.000090  -0.000090   0.000116   0.003558
     9  H    0.000110   0.000011  -0.000011  -0.000011  -0.001283   0.001262
    10  H   -0.000010   0.000001   0.000000   0.000000   0.000060  -0.000018
    11  H    0.000110   0.000011  -0.000012  -0.000012  -0.001272   0.001255
    12  H    0.001466   0.000107  -0.000088  -0.000088   0.000022   0.003626
    13  O    8.200107   0.258051  -0.089339  -0.089339   0.004741  -0.004417
    14  C    0.258051   4.832157   0.409803   0.409803  -0.000535  -0.002937
    15  H   -0.089339   0.409803   0.692977  -0.133936  -0.001638   0.003660
    16  H   -0.089339   0.409803  -0.133936   0.692977   0.002423  -0.001459
    17  H    0.004741  -0.000535  -0.001638   0.002423   0.768712   0.104869
    18  Cl  -0.004417  -0.002937   0.003660  -0.001459   0.104869  16.992505
    19  H    0.004741  -0.000535   0.002423  -0.001638  -0.002942   0.001982
    20  Cl  -0.004417  -0.002937  -0.001459   0.003660   0.001982  -0.001187
              19         20
     1  C    0.009027  -0.044785
     2  C   -0.008523   0.024815
     3  C   -0.012591   0.015380
     4  C    0.027393  -0.029671
     5  C   -0.012539   0.015356
     6  C   -0.009130   0.025539
     7  F    0.003768   0.003733
     8  H    0.000116   0.003558
     9  H   -0.001283   0.001262
    10  H    0.000060  -0.000018
    11  H   -0.001272   0.001255
    12  H    0.000022   0.003626
    13  O    0.004741  -0.004417
    14  C   -0.000535  -0.002937
    15  H    0.002423  -0.001459
    16  H   -0.001638   0.003660
    17  H   -0.002942   0.001982
    18  Cl   0.001982  -0.001187
    19  H    0.768712   0.104869
    20  Cl   0.104869  16.992505
 Mulliken charges:
               1
     1  C   -0.461273
     2  C    0.066314
     3  C   -0.127862
     4  C   -0.266881
     5  C   -0.127414
     6  C    0.068302
     7  F   -0.189167
     8  H    0.192516
     9  H    0.211377
    10  H    0.173504
    11  H    0.211385
    12  H    0.192438
    13  O   -0.306671
    14  C    0.098424
    15  H    0.118231
    16  H    0.118231
    17  H    0.127341
    18  Cl  -0.113068
    19  H    0.127341
    20  Cl  -0.113068
 Sum of Mulliken charges =  -0.00000
 Mulliken charges with hydrogens summed into heavy atoms:
               1
     1  C   -0.461273
     2  C    0.258830
     3  C    0.083514
     4  C   -0.093377
     5  C    0.083972
     6  C    0.260739
     7  F   -0.189167
    13  O   -0.306671
    14  C    0.334885
    18  Cl   0.014274
    20  Cl   0.014274
 Electronic spatial extent (au):  <R**2>=           3464.0846
 Charge=             -0.0000 electrons
 Dipole moment (field-independent basis, Debye):
    X=              0.0080    Y=              0.7721    Z=              0.0000  Tot=              0.7722
 Quadrupole moment (field-independent basis, Debye-Ang):
   XX=            -72.4876   YY=            -47.0590   ZZ=            -89.7133
   XY=              0.0487   XZ=             -0.0000   YZ=             -0.0000
 Traceless Quadrupole moment (field-independent basis, Debye-Ang):
   XX=             -2.7343   YY=             22.6943   ZZ=            -19.9600
   XY=              0.0487   XZ=             -0.0000   YZ=             -0.0000
 Octapole moment (field-independent basis, Debye-Ang**2):
  XXX=             -0.0044  YYY=            127.7212  ZZZ=              0.0000  XYY=              0.2367
  XXY=             -1.8335  XXZ=             -0.0000  XZZ=              0.0198  YZZ=             10.7741
  YYZ=             -0.0000  XYZ=             -0.0000
 Hexadecapole moment (field-independent basis, Debye-Ang**3):
 XXXX=           -269.5203 YYYY=          -1662.7765 ZZZZ=          -1689.2325 XXXY=             -0.9621
 XXXZ=              0.0000 YYYX=              0.2276 YYYZ=             -0.0000 ZZZX=              0.0000
 ZZZY=              0.0000 XXYY=           -437.7061 XXZZ=           -338.8758 YYZZ=           -720.0711
 XXYZ=             -0.0000 YYXZ=             -0.0000 ZZXY=             -0.3138
 N-N= 7.448802280448D+02 E-N=-4.728937334544D+03  KE= 1.368743819790D+03
 Symmetry A'   KE= 8.879500658112D+02
 Symmetry A"   KE= 4.807937539793D+02
 D1PCM: PCM CHGder 1st derivatives, ID1Alg=3 FixD1E=F DoIter=F DoCFld=F I1PDM=0.
 Calling FoFJK, ICntrl=      2127 FMM=F ISym2X=1 I1Cent= 0 IOpClX= 0 NMat=1 NMatS=1 NMatT=0.
 ***** Axes restored to original set *****
 -------------------------------------------------------------------
 Center     Atomic                   Forces (Hartrees/Bohr)
 Number     Number              X              Y              Z
 -------------------------------------------------------------------
      1        6          -0.087420238   -0.000000000   -0.050470075
      2        6          -0.053568113   -0.000000000    0.015038969
      3        6           0.002645589   -0.000000000    0.037260378
      4        6           0.039138425    0.000000000    0.022596467
      5        6           0.033591030   -0.000000000   -0.016338861
      6        6          -0.013760707   -0.000000000   -0.053911418
      7        9           0.023030089    0.000000000    0.013300606
      8        1          -0.065660590    0.000000000    0.035904485
      9        1          -0.001693425    0.000000000    0.073792117
     10        1           0.064287728   -0.000000000    0.037116542
     11        1           0.063059183    0.000000000   -0.038362589
     12        1          -0.001736168    0.000000000   -0.074815933
     13        8           0.015045835    0.000000000    0.008677032
     14        6           0.062368082   -0.000000000    0.036343018
     15        1          -0.039199757    0.071667076   -0.022796126
     16        1          -0.039199757   -0.071667076   -0.022796126
     17        1          -0.116685939   -0.759539158   -0.067369831
     18       17           0.116222337    0.758480044    0.067100587
     19        1          -0.116685939    0.759539158   -0.067369831
     20       17           0.116222337   -0.758480044    0.067100587
 -------------------------------------------------------------------
 Cartesian Forces:  Max     0.759539158 RMS     0.201913288
 -----------------------------------------------------------------------------------------------
                       Internal Coordinate Forces (Hartree/Bohr or radian)
  Cent   Atom   N1       Length/X         N2         Alpha/Y        N3         Beta/Z          J
 -----------------------------------------------------------------------------------------------
      1  C 
      2  C        1   0.037124(     1)
      3  C        2   0.153187(     2)      1   0.161240(    20)
      4  C        3   0.221708(     3)      2   0.414434(    21)      1  -0.000000(    38)     0
      5  C        4   0.184585(     4)      3   0.450999(    22)      2  -0.000000(    39)     0
      6  C        5   0.078941(     5)      4   0.253275(    23)      3  -0.000000(    40)     0
      7  F        1  -0.024383(     6)      2   0.000012(    24)      3  -0.000000(    41)     0
      8  H        2   0.074816(     7)      3   0.003281(    25)      4   0.000000(    42)     0
      9  H        3   0.073792(     8)      4   0.003200(    26)      5   0.000000(    43)     0
     10  H        4   0.074233(     9)      5   0.000000(    27)      6  -0.000000(    44)     0
     11  H        5   0.073792(    10)      6  -0.003200(    28)      1   0.000000(    45)     0
     12  H        6   0.074816(    11)      1  -0.003281(    29)      2   0.000000(    46)     0
     13  O        7   0.001140(    12)      1  -0.000005(    30)      3   0.000000(    47)     0
     14  C       13   0.018508(    13)      1   0.000105(    31)      2   0.000000(    48)     0
     15  H       14   0.084739(    14)      1   0.006496(    32)      2   0.000117(    49)     0
     16  H       14   0.084739(    15)      1   0.006496(    33)      2  -0.000117(    50)     0
     17  H        7  -0.000950(    16)      1   0.002321(    34)      2   0.000006(    51)     0
     18  Cl      17   0.770261(    17)      7  -0.000773(    35)      1   0.000000(    52)     0
     19  H        7  -0.000950(    18)      1   0.002321(    36)      2  -0.000006(    53)     0
     20  Cl      19   0.770261(    19)      7  -0.000773(    37)      1  -0.000000(    54)     0
 -----------------------------------------------------------------------------------------------
 Internal  Forces:  Max     0.770260925 RMS     0.183042424

 GradGradGradGradGradGradGradGradGradGradGradGradGradGradGradGradGradGrad
 Berny optimization.
 Search for a local minimum.
 Step number   1 out of a maximum of   29
 All quantities printed in internal units (Hartrees-Bohrs-Radians)
 Second derivative matrix not updated -- first step.
 The second derivative matrix:
                          d1        d2        d3        d4        d5
           d1           0.95300
           d2          -0.05489   0.95300
           d3          -0.33597   0.33597   1.34386
           d4          -0.28107   0.05489   0.33597   0.95300
           d5           0.05489  -0.28107  -0.33597  -0.05489   0.95300
           d6           0.00000   0.00000   0.00000  -0.00000  -0.00000
           d7           0.00000   0.00000  -0.00000  -0.00000  -0.00000
           d8          -0.00000  -0.00000   0.00000   0.00000   0.00000
           d9           0.00000   0.00000   0.00000  -0.00000  -0.00000
           d10         -0.00000  -0.00000  -0.00000   0.00000   0.00000
           d11          0.00000  -0.00000  -0.00000  -0.00000  -0.00000
           d12          0.00000   0.00000   0.00000  -0.00000  -0.00000
           d13          0.00000   0.00000   0.00000  -0.00000  -0.00000
           d14         -0.00000  -0.00000   0.00000   0.00000   0.00000
           d15          0.00000   0.00000   0.00000  -0.00000  -0.00000
           d16         -0.00000  -0.00000  -0.00000   0.00000   0.00000
           d17         -0.00000  -0.00000   0.00000   0.00000   0.00000
           d18         -0.00000  -0.00000  -0.00000   0.00000   0.00000
           d19         -0.00000  -0.00000   0.00000   0.00000   0.00000
                          d6        d7        d8        d9        d10
           d6           0.45621
           d7          -0.00000   0.47688
           d8          -0.00000   0.00000   0.47688
           d9           0.00000  -0.00000   0.00000   0.47688
           d10          0.00000  -0.00000  -0.00000   0.00000   0.47688
           d11          0.00000  -0.00000   0.00000   0.00000   0.00000
           d12         -0.00000   0.00000  -0.00000   0.00000   0.00000
           d13         -0.00000   0.00000  -0.00000   0.00000   0.00000
           d14          0.00000   0.00000   0.00000  -0.00000  -0.00000
           d15         -0.00000  -0.00000  -0.00000   0.00000   0.00000
           d16         -0.00000  -0.00000   0.00000  -0.00000  -0.00000
           d17          0.00000   0.00000   0.00000  -0.00000  -0.00000
           d18          0.00000   0.00000   0.00000  -0.00000  -0.00000
           d19          0.00000   0.00000   0.00000  -0.00000  -0.00000
                          d11       d12       d13       d14       d15
           d11          0.47688
           d12          0.00000   0.02330
           d13          0.00000  -0.00000   1.04823
           d14         -0.00000   0.00000   0.00000   0.47688
           d15          0.00000   0.00000  -0.00000   0.00000   0.47688
           d16         -0.00000   0.00000   0.00000   0.00000   0.00000
           d17         -0.00000  -0.00000  -0.00000   0.00000  -0.00000
           d18          0.00000  -0.00000   0.00000   0.00000  -0.00000
           d19          0.00000   0.00000   0.00000  -0.00000   0.00000
                          d16       d17       d18       d19
           d16          0.02721
           d17          0.00000   1.53817
           d18          0.00000   0.00000   0.02721
           d19          0.00000  -0.00000  -0.00000   1.53817
 ITU=  0
     Eigenvalues ---    0.02330   0.02721   0.02721   0.45621   0.47688
     Eigenvalues ---    0.47688   0.47688   0.47688   0.47688   0.47688
     Eigenvalues ---    0.47688   0.67193   0.67193   0.67193   1.04823
     Eigenvalues ---    1.12429   1.53817   1.53817   2.01579
 RFO step:  Lambda=-6.46506346D-01 EMin= 2.33007068D-02
 Linear search not attempted -- first point.
 Maximum step size (   0.300) exceeded in Quadratic search.
    -- Step size scaled by   0.527
 Variable       Old X    -DE/DX   Delta X   Delta X   Delta X     New X
                                 (Linear)    (Quad)   (Total)
    d1        2.45664   0.03712   0.00000   0.03349   0.03349   2.49014
    d2        2.45664   0.15319   0.00000   0.04634   0.04634   2.50298
    d3        2.45664   0.22171   0.00000   0.05509   0.05509   2.51173
    d4        2.45664   0.18459   0.00000   0.05515   0.05515   2.51180
    d5        2.45664   0.07894   0.00000   0.04647   0.04647   2.50312
    d6        2.64562  -0.02438   0.00000  -0.01166  -0.01166   2.63396
    d7        1.88973   0.07482   0.00000   0.03511   0.03511   1.92483
    d8        1.88973   0.07379   0.00000   0.03463   0.03463   1.92435
    d9        1.88973   0.07423   0.00000   0.03483   0.03483   1.92456
   d10        1.88973   0.07379   0.00000   0.03463   0.03463   1.92435
   d11        1.88973   0.07482   0.00000   0.03511   0.03511   1.92483
   d12        5.29123   0.00114   0.00000   0.00090   0.00090   5.29213
   d13        2.26767   0.01851   0.00000   0.00576   0.00576   2.27343
   d14        1.88973   0.08474   0.00000   0.03976   0.03976   1.92949
   d15        1.88973   0.08474   0.00000   0.03976   0.03976   1.92949
   d16        4.34637  -0.00095   0.00000  -0.00074  -0.00074   4.34563
   d17        1.70075   0.77026   0.00000   0.18586   0.18586   1.88661
   d18        4.34637  -0.00095   0.00000  -0.00074  -0.00074   4.34563
   d19        1.70075   0.77026   0.00000   0.18586   0.18586   1.88661
         Item               Value     Threshold  Converged?
 Maximum Force            0.770261     0.000450     NO 
 RMS     Force            0.265945     0.000300     NO 
 Maximum Displacement     0.185857     0.001800     NO 
 RMS     Displacement     0.068825     0.001200     NO 
 Predicted change in Energy=-2.800688D-01
 GradGradGradGradGradGradGradGradGradGradGradGradGradGradGradGradGradGrad

 ---------------------------------------------------------------------------------------------------
                            Z-MATRIX (ANGSTROMS AND DEGREES)
   CD    Cent   Atom    N1       Length/X        N2       Alpha/Y        N3        Beta/Z          J
 ---------------------------------------------------------------------------------------------------
      1      1  C 
      2      2  C        1   1.317723(     1)
      3      3  C        2   1.324521(     2)      1  120.000(    20)
      4      4  C        3   1.329150(     3)      2  120.000(    21)      1    0.000(    38)      0
      5      5  C        4   1.329186(     4)      3  120.000(    22)      2    0.000(    39)      0
      6      6  C        5   1.324592(     5)      4  120.000(    23)      3    0.000(    40)      0
      7      7  F        1   1.393832(     6)      2  120.000(    24)      3  180.000(    41)      0
      8      8  H        2   1.018578(     7)      3  120.000(    25)      4  180.000(    42)      0
      9      9  H        3   1.018324(     8)      4  120.000(    26)      5  180.000(    43)      0
     10     10  H        4   1.018433(     9)      5  120.000(    27)      6  180.000(    44)      0
     11     11  H        5   1.018324(    10)      6  120.000(    28)      1  180.000(    45)      0
     12     12  H        6   1.018578(    11)      1  120.000(    29)      2  180.000(    46)      0
     13     13  O        7   2.800475(    12)      1  179.900(    30)      3  180.000(    47)      0
     14     14  C       13   1.203046(    13)      1  179.900(    31)      2  180.000(    48)      0
     15     15  H       14   1.021042(    14)      1  120.000(    32)      2   90.000(    49)      0
     16     16  H       14   1.021042(    15)      1  120.000(    33)      2  -90.000(    50)      0
     17     17  H        7   2.299607(    16)      1  100.000(    34)      2   90.000(    51)      0
     18     18  Cl      17   0.998351(    17)      7  160.000(    35)      1    0.000(    52)      0
     19     19  H        7   2.299607(    18)      1  100.000(    36)      2  -90.000(    53)      0
     20     20  Cl      19   0.998351(    19)      7  160.000(    37)      1    0.000(    54)      0
 ---------------------------------------------------------------------------------------------------
                         Z-Matrix orientation:                         
 ---------------------------------------------------------------------
 Center     Atomic      Atomic             Coordinates (Angstroms)
 Number     Number       Type             X           Y           Z
 ---------------------------------------------------------------------
      1          6           0        0.000000    0.000000    0.000000
      2          6           0        0.000000    0.000000    1.317723
      3          6           0        1.147069    0.000000    1.979984
      4          6           0        2.298146    0.000000    1.315409
      5          6           0        2.298146    0.000000   -0.013777
      6          6           0        1.151016    0.000000   -0.676073
      7          9           0       -1.207094   -0.000000   -0.696916
      8          1           0       -0.882114   -0.000000    1.827012
      9          1           0        1.147069   -0.000000    2.998307
     10          1           0        3.180135   -0.000000    1.824625
     11          1           0        3.180040   -0.000000   -0.522939
     12          1           0        1.143394   -0.000000   -1.694622
     13          8           0       -3.629928   -0.000000   -2.101384
     14          6           0       -4.670042   -0.000000   -2.705937
     15          1           0       -5.111769    0.884248   -2.961885
     16          1           0       -5.111769   -0.884248   -2.961885
     17          1           0       -1.552917    2.264670   -0.896577
     18         17           0       -1.402781    3.247855   -0.809896
     19          1           0       -1.552917   -2.264670   -0.896577
     20         17           0       -1.402781   -3.247855   -0.809896
 ---------------------------------------------------------------------
                    Distance matrix (angstroms):
                    1          2          3          4          5
     1  C    0.000000
     2  C    1.317723   0.000000
     3  C    2.288253   1.324521   0.000000
     4  C    2.647976   2.298148   1.329150   0.000000
     5  C    2.298188   2.656006   2.302186   1.329186   0.000000
     6  C    1.334883   2.302186   2.656060   2.298240   1.324592
     7  F    1.393832   2.348584   3.564810   4.041801   3.571189
     8  H    2.028817   1.018578   2.034941   3.221148   3.674583
     9  H    3.210236   2.034731   1.018324   2.038903   3.224536
    10  H    3.666404   3.220281   2.038994   1.018433   2.039026
    11  H    3.222751   3.674329   3.224530   2.038936   1.018324
    12  H    2.044283   3.222045   3.674608   3.223932   2.039288
    13  O    4.194305   4.986650   6.283093   6.842261   6.284916
    14  C    5.397350   6.164344   7.469714   8.045301   7.470166
    15  H    5.973678   6.725111   8.023528   8.601394   8.023719
    16  H    5.973678   6.725111   8.023528   8.601394   8.023719
    17  H    2.888622   3.527522   4.548984   4.985209   4.553983
    18  Cl   3.629365   4.128331   4.983345   5.363054   4.987909
    19  H    2.888622   3.527522   4.548984   4.985209   4.553983
    20  Cl   3.629365   4.128331   4.983345   5.363054   4.987909
                    6          7          8          9         10
     6  C    0.000000
     7  F    2.358202   0.000000
     8  H    3.224756   2.544764   0.000000
     9  H    3.674382   4.381410   2.342972   0.000000
    10  H    3.220375   5.060232   4.062250   2.347528   0.000000
    11  H    2.034795   4.390583   4.692906   4.065974   2.347564
    12  H    1.018578   2.553470   4.062585   4.692931   4.066130
    13  O    4.988882   2.800475   4.794036   6.987600   7.860694
    14  C    6.164825   4.003520   5.907286   8.147219   9.063734
    15  H    6.725273   4.599833   6.450225   8.687855   9.615001
    16  H    6.725273   4.599833   6.450225   8.687855   9.615001
    17  H    3.533923   2.299607   3.605086   5.252502   5.910623
    18  Cl   4.133806   3.255705   4.215796   5.617180   6.204223
    19  H    3.533923   2.299607   3.605086   5.252502   5.910623
    20  Cl   4.133806   3.255705   4.215796   5.617180   6.204223
                   11         12         13         14         15
    11  H    0.000000
    12  H    2.349632   0.000000
    13  O    6.990505   4.790622   0.000000
    14  C    8.147961   5.900745   1.203046   0.000000
    15  H    8.688179   6.443207   1.928265   1.021042   0.000000
    16  H    8.688179   6.443207   1.928265   1.021042   1.768496
    17  H    5.260155   3.610499   3.300647   4.256640   4.340102
    18  Cl   5.624336   4.220700   4.144476   4.981819   4.896353
    19  H    5.260155   3.610499   3.300647   4.256640   5.181371
    20  Cl   5.624336   4.220700   4.144476   4.981819   5.954991
                   16         17         18         19         20
    16  H    0.000000
    17  H    5.181371   0.000000
    18  Cl   5.954991   0.998351   0.000000
    19  H    4.340102   4.529341   5.515250   0.000000
    20  Cl   4.896353   5.515250   6.495709   0.998351   0.000000
 Stoichiometry    C7H9Cl2FO
 Framework group  CS[SG(C7H5FO),X(H4Cl2)]
 Deg. of freedom    34
 Full point group                 CS      NOp   2
 Largest Abelian subgroup         CS      NOp   2
 Largest concise Abelian subgroup CS      NOp   2
                         Standard orientation:                         
 ---------------------------------------------------------------------
 Center     Atomic      Atomic             Coordinates (Angstroms)
 Number     Number       Type             X           Y           Z
 ---------------------------------------------------------------------
      1          6           0       -0.004419   -0.906078    0.000000
      2          6           0       -1.145601   -1.564940    0.000000
      3          6           0       -1.145601   -2.889461    0.000000
      4          6           0        0.005477   -3.554036    0.000000
      5          6           0        1.156585   -2.889443   -0.000000
      6          6           0        1.156585   -1.564851   -0.000000
      7          9           0       -0.004419    0.487754   -0.000000
      8          1           0       -2.027715   -1.055651    0.000000
      9          1           0       -2.027495   -3.398623    0.000000
     10          1           0        0.005477   -4.572469    0.000000
     11          1           0        2.038479   -3.398605   -0.000000
     12          1           0        2.034864   -1.048976   -0.000000
     13          8           0        0.000469    3.288224   -0.000000
     14          6           0        0.003970    4.491265   -0.000000
     15          1           0        0.004764    5.001786    0.884248
     16          1           0        0.004764    5.001786   -0.884248
     17          1           0       -0.004419    0.887076    2.264670
     18         17           0       -0.004419    0.713714    3.247855
     19          1           0       -0.004419    0.887076   -2.264670
     20         17           0       -0.004419    0.713714   -3.247855
 ---------------------------------------------------------------------
 Rotational constants (GHZ):           0.6089582           0.4792558           0.2931582
 Standard basis: 6-311++G(d,p) (5D, 7F)
 There are   228 symmetry adapted cartesian basis functions of A'  symmetry.
 There are   104 symmetry adapted cartesian basis functions of A"  symmetry.
 There are   218 symmetry adapted basis functions of A'  symmetry.
 There are   103 symmetry adapted basis functions of A"  symmetry.
   321 basis functions,   511 primitive gaussians,   332 cartesian basis functions
    51 alpha electrons       51 beta electrons
       nuclear repulsion energy       731.6180105054 Hartrees.
 NAtoms=   20 NActive=   20 NUniq=   17 SFac= 1.38D+00 NAtFMM=   60 NAOKFM=F Big=F
 Integral buffers will be    131072 words long.
 Raffenetti 2 integral format.
 Two-electron integral symmetry is turned on.
 ------------------------------------------------------------------------------
 Polarizable Continuum Model (PCM)
 =================================
 Model                : PCM.
 Atomic radii         : UFF (Universal Force Field).
 Polarization charges : Total charges.
 Charge compensation  : None.
 Solution method      : On-the-fly selection.
 Cavity type          : Scaled VdW (van der Waals Surface) (Alpha=1.100).
 Cavity algorithm     : GePol (No added spheres)
                        Default sphere list used, NSphG=   20.
                        Lebedev-Laikov grids with approx.  5.0 points / Ang**2.
                        Smoothing algorithm: York/Karplus (Gamma=1.0000).
                        Polarization charges: spherical gaussians, with
                                              point-specific exponents (IZeta= 3).
                        Self-potential: point-specific (ISelfS= 7).
                        Self-field    : sphere-specific E.n sum rule (ISelfD= 2).
 1st derivatives      : Analytical E(r).r(x)/FMM algorithm (CHGder, D1EAlg=3).
                        Cavity 1st derivative terms included.
 Solvent              : Chloroform, Eps=   4.711300 Eps(inf)=   2.090627
 ------------------------------------------------------------------------------
 Spheres list:
 ISph  on   Nord     Re0    Alpha      Xe            Ye            Ze
    1   C      1    1.9255  1.100     -0.004419     -0.906078      0.000000
    2   C      2    1.9255  1.100     -1.145601     -1.564940      0.000000
    3   C      3    1.9255  1.100     -1.145601     -2.889461      0.000000
    4   C      4    1.9255  1.100      0.005477     -3.554036      0.000000
    5   C      5    1.9255  1.100      1.156585     -2.889443     -0.000000
    6   C      6    1.9255  1.100      1.156585     -1.564851     -0.000000
    7   F      7    1.6820  1.100     -0.004419      0.487754     -0.000000
    8   H      8    1.4430  1.100     -2.027715     -1.055651      0.000000
    9   H      9    1.4430  1.100     -2.027495     -3.398623      0.000000
   10   H     10    1.4430  1.100      0.005477     -4.572469      0.000000
   11   H     11    1.4430  1.100      2.038479     -3.398605     -0.000000
   12   H     12    1.4430  1.100      2.034864     -1.048976     -0.000000
   13   O     13    1.7500  1.100      0.000469      3.288224     -0.000000
   14   C     14    1.9255  1.100      0.003970      4.491265     -0.000000
   15   H     15    1.4430  1.100      0.004764      5.001786      0.884248
   16   H     16    1.4430  1.100      0.004764      5.001786     -0.884248
   17   H     17    1.4430  1.100     -0.004419      0.887076      2.264670
   18  Cl     18    1.9735  1.100     -0.004419      0.713714      3.247855
   19   H     19    1.4430  1.100     -0.004419      0.887076     -2.264670
   20  Cl     20    1.9735  1.100     -0.004419      0.713714     -3.247855
 ------------------------------------------------------------------------------
 One-electron integrals computed using PRISM.
 NBasis=   321 RedAO= T EigKep=  4.46D-06  NBF=   218   103
 NBsUse=   320 1.00D-06 EigRej=  4.63D-07 NBFU=   217   103
 Initial guess from the checkpoint file:  "model_H2b.chk"
 B after Tr=     0.000000   -0.000000   -0.000000
         Rot=    1.000000    0.000000   -0.000000   -0.000760 Ang=  -0.09 deg.
 Initial guess orbital symmetries:
       Occupied  (A") (A') (A') (A') (A') (A') (A') (A') (A') (A')
                 (A') (A") (A') (A') (A") (A') (A") (A') (A") (A')
                 (A') (A") (A') (A') (A') (A') (A') (A') (A') (A')
                 (A") (A") (A') (A') (A') (A") (A') (A') (A') (A')
                 (A") (A') (A') (A') (A') (A") (A") (A') (A") (A")
                 (A")
       Virtual   (A') (A') (A') (A') (A") (A') (A") (A") (A') (A')
                 (A") (A') (A") (A') (A") (A') (A') (A") (A') (A')
                 (A') (A") (A") (A') (A') (A') (A') (A') (A') (A")
                 (A') (A") (A") (A') (A") (A') (A') (A') (A') (A")
                 (A') (A') (A') (A") (A') (A') (A") (A') (A') (A")
                 (A') (A") (A') (A') (A') (A') (A") (A') (A') (A')
                 (A') (A') (A") (A') (A') (A') (A') (A') (A') (A')
                 (A") (A") (A') (A') (A") (A') (A') (A') (A') (A')
                 (A") (A") (A') (A') (A") (A') (A") (A') (A') (A")
                 (A") (A') (A") (A') (A') (A") (A') (A") (A') (A')
                 (A") (A') (A') (A') (A') (A') (A") (A') (A') (A')
                 (A') (A') (A") (A") (A') (A') (A') (A") (A') (A')
                 (A') (A') (A") (A") (A') (A') (A') (A") (A') (A")
                 (A") (A") (A") (A') (A") (A") (A') (A') (A') (A')
                 (A') (A") (A') (A') (A") (A') (A') (A') (A') (A")
                 (A") (A') (A") (A") (A') (A') (A') (A") (A") (A')
                 (A') (A") (A') (A") (A') (A') (A') (A") (A') (A')
                 (A") (A") (A') (A') (A") (A') (A') (A') (A") (A')
                 (A') (A") (A") (A') (A') (A") (A') (A") (A') (A")
                 (A') (A") (A') (A') (A") (A') (A') (A') (A') (A")
                 (A') (A') (A') (A') (A") (A') (A') (A') (A") (A")
                 (A') (A") (A") (A") (A') (A') (A') (A") (A') (A')
                 (A') (A') (A') (A") (A') (A") (A') (A') (A') (A')
                 (A') (A") (A') (A") (A") (A') (A') (A') (A') (A')
                 (A') (A') (A') (A') (A') (A") (A') (A") (A') (A')
                 (A') (A") (A') (A') (A') (A') (A') (A') (A') (A")
                 (A') (A") (A') (A") (A') (A') (A') (A') (A")
 ExpMin= 3.60D-02 ExpMax= 1.06D+05 ExpMxC= 3.62D+03 IAcc=3 IRadAn=         5 AccDes= 0.00D+00
 Harris functional with IExCor= 1009 and IRadAn=       5 diagonalized for initial guess.
 HarFok:  IExCor= 1009 AccDes= 0.00D+00 IRadAn=         5 IDoV= 1 UseB2=F ITyADJ=14
 ICtDFT=  3500011 ScaDFX=  1.000000  1.000000  1.000000  1.000000
 FoFCou: FMM=F IPFlag=           0 FMFlag=      100000 FMFlg1=           0
         NFxFlg=           0 DoJE=T BraDBF=F KetDBF=T FulRan=T
         wScrn=  0.000000 ICntrl=       500 IOpCl=  0 I1Cent=   200000004 NGrid=           0
         NMat0=    1 NMatS0=      1 NMatT0=    0 NMatD0=    1 NMtDS0=    0 NMtDT0=    0
 Petite list used in FoFCou.
 Requested convergence on RMS density matrix=1.00D-08 within 128 cycles.
 Requested convergence on MAX density matrix=1.00D-06.
 Requested convergence on             energy=1.00D-06.
 No special actions if energy rises.
 Inv3:  Mode=1 IEnd=    13091763.
 Iteration    1 A*A^-1 deviation from unit magnitude is 6.66D-15 for   2089.
 Iteration    1 A*A^-1 deviation from orthogonality  is 3.05D-15 for   2085   1996.
 Iteration    1 A^-1*A deviation from unit magnitude is 6.88D-15 for   2089.
 Iteration    1 A^-1*A deviation from orthogonality  is 3.50D-15 for   2085   1996.
 Error on total polarization charges =  0.01352
 SCF Done:  E(RM062X) =  -1367.31850778     A.U. after   13 cycles
            NFock= 13  Conv=0.28D-08     -V/T= 2.0001
 D1PCM: PCM CHGder 1st derivatives, ID1Alg=3 FixD1E=F DoIter=F DoCFld=F I1PDM=0.
 Calling FoFJK, ICntrl=      2127 FMM=F ISym2X=1 I1Cent= 0 IOpClX= 0 NMat=1 NMatS=1 NMatT=0.
 ***** Axes restored to original set *****
 -------------------------------------------------------------------
 Center     Atomic                   Forces (Hartrees/Bohr)
 Number     Number              X              Y              Z
 -------------------------------------------------------------------
      1        6          -0.049019279    0.000000000   -0.047097510
      2        6          -0.036996840   -0.000000000    0.013453598
      3        6           0.009426667   -0.000000000    0.017303464
      4        6           0.018197694   -0.000000000    0.012508526
      5        6           0.017236074   -0.000000000   -0.004180071
      6        6          -0.020108293    0.000000000   -0.027908439
      7        9           0.021275335    0.000000000    0.012476475
      8        1          -0.048648597    0.000000000    0.026134003
      9        1          -0.001378846    0.000000000    0.054385878
     10        1           0.047333815    0.000000000    0.027349932
     11        1           0.046461341    0.000000000   -0.028453858
     12        1          -0.002005216    0.000000000   -0.054934596
     13        8           0.008272243   -0.000000000    0.004742138
     14        6           0.050739610   -0.000000000    0.029610896
     15        1          -0.029954226    0.052621942   -0.017436603
     16        1          -0.029954226   -0.052621942   -0.017436603
     17        1          -0.063038586   -0.408194710   -0.036399663
     18       17           0.062599958    0.406756749    0.036141048
     19        1          -0.063038586    0.408194710   -0.036399663
     20       17           0.062599958   -0.406756749    0.036141048
 -------------------------------------------------------------------
 Cartesian Forces:  Max     0.408194710 RMS     0.109606811
 -----------------------------------------------------------------------------------------------
                       Internal Coordinate Forces (Hartree/Bohr or radian)
  Cent   Atom   N1       Length/X         N2         Alpha/Y        N3         Beta/Z          J
 -----------------------------------------------------------------------------------------------
      1  C 
      2  C        1   0.034610(     1)
      3  C        2   0.096712(     2)      1   0.072378(    20)
      4  C        3   0.130565(     3)      2   0.223268(    21)      1   0.000000(    38)     0
      5  C        4   0.116526(     4)      3   0.253634(    22)      2   0.000000(    39)     0
      6  C        5   0.061630(     5)      4   0.150695(    23)      3   0.000000(    40)     0
      7  F        1  -0.022608(     6)      2  -0.000399(    24)      3  -0.000000(    41)     0
      8  H        2   0.055198(     7)      3   0.003256(    25)      4   0.000000(    42)     0
      9  H        3   0.054386(     8)      4   0.002653(    26)      5   0.000000(    43)     0
     10  H        4   0.054667(     9)      5   0.000036(    27)      6   0.000000(    44)     0
     11  H        5   0.054464(    10)      6  -0.002715(    28)      1   0.000000(    45)     0
     12  H        6   0.054948(    11)      1  -0.003068(    29)      2   0.000000(    46)     0
     13  O        7   0.001037(    12)      1  -0.000004(    30)      3  -0.000000(    47)     0
     14  C       13   0.010571(    13)      1   0.000102(    31)      2  -0.000000(    48)     0
     15  H       14   0.062902(    14)      1   0.007149(    32)      2   0.000116(    49)     0
     16  H       14   0.062902(    15)      1   0.007149(    33)      2  -0.000116(    50)     0
     17  H        7  -0.001328(    16)      1   0.002221(    34)      2   0.000022(    51)     0
     18  Cl      17   0.413129(    17)      7  -0.001043(    35)      1   0.000001(    52)     0
     19  H        7  -0.001328(    18)      1   0.002221(    36)      2  -0.000022(    53)     0
     20  Cl      19   0.413129(    19)      7  -0.001043(    37)      1  -0.000001(    54)     0
 -----------------------------------------------------------------------------------------------
 Internal  Forces:  Max     0.413129129 RMS     0.101116057

 GradGradGradGradGradGradGradGradGradGradGradGradGradGradGradGradGradGrad
 Berny optimization.
 Search for a local minimum.
 Step number   2 out of a maximum of   29
 All quantities printed in internal units (Hartrees-Bohrs-Radians)
 Update second derivatives using D2CorN and points    1    2
 DE= -2.60D-01 DEPred=-2.80D-01 R= 9.28D-01
 TightC=F SS=  1.41D+00  RLast= 3.00D-01 DXNew= 5.0454D-01 9.0000D-01
 Trust test= 9.28D-01 RLast= 3.00D-01 DXMaxT set to 5.05D-01
 The second derivative matrix:
                          d1        d2        d3        d4        d5
           d1           0.95471
           d2          -0.05265   0.95593
           d3          -0.33272   0.34025   1.34991
           d4          -0.27847   0.05829   0.34096   0.95693
           d5           0.05715  -0.27813  -0.33166  -0.05148   0.95597
           d6           0.00036   0.00054   0.00044   0.00067   0.00054
           d7           0.00143   0.00185   0.00281   0.00213   0.00186
           d8           0.00142   0.00184   0.00279   0.00212   0.00185
           d9           0.00144   0.00186   0.00282   0.00215   0.00187
           d10          0.00141   0.00182   0.00276   0.00210   0.00183
           d11          0.00148   0.00191   0.00288   0.00221   0.00193
           d12          0.00004   0.00005   0.00007   0.00006   0.00005
           d13          0.00050   0.00067   0.00090   0.00079   0.00067
           d14          0.00155   0.00200   0.00306   0.00230   0.00201
           d15          0.00155   0.00200   0.00306   0.00230   0.00201
           d16          0.00006   0.00008   0.00008   0.00010   0.00008
           d17          0.01800   0.02421   0.03201   0.02845   0.02432
           d18          0.00006   0.00008   0.00008   0.00010   0.00008
           d19          0.01800   0.02421   0.03201   0.02845   0.02432
                          d6        d7        d8        d9        d10
           d6           0.45575
           d7           0.00050   0.47801
           d8           0.00049   0.00112   0.47800
           d9           0.00049   0.00113   0.00113   0.47803
           d10          0.00050   0.00110   0.00110   0.00111   0.47797
           d11          0.00049   0.00117   0.00117   0.00118   0.00115
           d12          0.00001   0.00003   0.00003   0.00003   0.00003
           d13         -0.00001   0.00046   0.00046   0.00046   0.00046
           d14          0.00060   0.00120   0.00119   0.00121   0.00117
           d15          0.00060   0.00120   0.00119   0.00121   0.00117
           d16         -0.00004   0.00007   0.00006   0.00006   0.00006
           d17         -0.00096   0.01687   0.01669   0.01684   0.01661
           d18         -0.00004   0.00007   0.00006   0.00006   0.00006
           d19         -0.00096   0.01687   0.01669   0.01684   0.01661
                          d11       d12       d13       d14       d15
           d11          0.47810
           d12          0.00003   0.02330
           d13          0.00047   0.00001   1.04835
           d14          0.00125   0.00003   0.00051   0.47815
           d15          0.00125   0.00003   0.00051   0.00127   0.47815
           d16          0.00006   0.00000   0.00000   0.00008   0.00008
           d17          0.01712   0.00044   0.00424   0.01871   0.01871
           d18          0.00006   0.00000   0.00000   0.00008   0.00008
           d19          0.01712   0.00044   0.00424   0.01871   0.01871
                          d16       d17       d18       d19
           d16          0.02721
           d17          0.00012   1.68531
           d18         -0.00000   0.00012   0.02721
           d19          0.00012   0.14714   0.00012   1.68531
 ITU=  1  0
 Linear search step of   0.600 exceeds DXMaxT=   0.505 but not scaled.
 Quartic linear search produced a step of  2.00000.
 Variable       Old X    -DE/DX   Delta X   Delta X   Delta X     New X
                                 (Linear)    (Quad)   (Total)
    d1        2.49014   0.03461   0.06698   0.00000   0.06698   2.55712
    d2        2.50298   0.09671   0.09268   0.00000   0.09268   2.59566
    d3        2.51173   0.13056   0.11017   0.00000   0.11017   2.62190
    d4        2.51180   0.11653   0.11031   0.00000   0.11031   2.62210
    d5        2.50312   0.06163   0.09295   0.00000   0.09295   2.59606
    d6        2.63396  -0.02261  -0.02331   0.00000  -0.02331   2.61065
    d7        1.92483   0.05520   0.07021   0.00000   0.07021   1.99505
    d8        1.92435   0.05439   0.06925   0.00000   0.06925   1.99361
    d9        1.92456   0.05467   0.06967   0.00000   0.06967   1.99423
   d10        1.92435   0.05446   0.06925   0.00000   0.06925   1.99361
   d11        1.92483   0.05495   0.07021   0.00000   0.07021   1.99505
   d12        5.29213   0.00104   0.00179   0.00000   0.00179   5.29392
   d13        2.27343   0.01057   0.01151   0.00000   0.01151   2.28494
   d14        1.92949   0.06290   0.07953   0.00000   0.07953   2.00902
   d15        1.92949   0.06290   0.07953   0.00000   0.07953   2.00902
   d16        4.34563  -0.00133  -0.00149   0.00000  -0.00149   4.34414
   d17        1.88661   0.41313   0.37171   0.00000   0.37171   2.25832
   d18        4.34563  -0.00133  -0.00149   0.00000  -0.00149   4.34414
   d19        1.88661   0.41313   0.37171   0.00000   0.37171   2.25832
         Item               Value     Threshold  Converged?
 Maximum Force            0.413129     0.000450     NO 
 RMS     Force            0.146870     0.000300     NO 
 Maximum Displacement     0.371714     0.001800     NO 
 RMS     Displacement     0.137649     0.001200     NO 
 Predicted change in Energy=-8.063390D-02
 GradGradGradGradGradGradGradGradGradGradGradGradGradGradGradGradGradGrad

 ---------------------------------------------------------------------------------------------------
                            Z-MATRIX (ANGSTROMS AND DEGREES)
   CD    Cent   Atom    N1       Length/X        N2       Alpha/Y        N3        Beta/Z          J
 ---------------------------------------------------------------------------------------------------
      1      1  C 
      2      2  C        1   1.353170(     1)
      3      3  C        2   1.373563(     2)      1  120.000(    20)
      4      4  C        3   1.387450(     3)      2  120.000(    21)      1    0.000(    38)      0
      5      5  C        4   1.387557(     4)      3  120.000(    22)      2    0.000(    39)      0
      6      6  C        5   1.373777(     5)      4  120.000(    23)      3    0.000(    40)      0
      7      7  F        1   1.381495(     6)      2  120.000(    24)      3  180.000(    41)      0
      8      8  H        2   1.055733(     7)      3  120.000(    25)      4  180.000(    42)      0
      9      9  H        3   1.054971(     8)      4  120.000(    26)      5  180.000(    43)      0
[...]
    13  O    7.089504   4.760791   0.000000
    14  C    8.243401   5.859652   1.203392   0.000000
    15  H    8.827779   6.446356   1.996699   1.101446   0.000000
    16  H    8.827779   6.446356   1.996699   1.101446   1.907761
    17  H    5.232711   3.457468   3.154992   4.153853   4.316981
    18  Cl   5.674610   4.229955   4.218264   5.062825   4.984177
    19  H    5.232711   3.457468   3.154992   4.153853   5.128994
    20  Cl   5.674610   4.229955   4.218264   5.062825   6.111351
                   16         17         18         19         20
    16  H    0.000000
    17  H    5.128994   0.000000
    18  Cl   6.111351   1.287096   0.000000
    19  H    4.316981   4.020551   5.292814   0.000000
    20  Cl   4.984177   5.292814   6.555636   1.287096   0.000000
 Stoichiometry    C7H9Cl2FO
 Framework group  CS[SG(C7H5FO),X(H4Cl2)]
 Deg. of freedom    34
 Full point group                 CS      NOp   2
 Largest Abelian subgroup         CS      NOp   2
 Largest concise Abelian subgroup CS      NOp   2
                         Standard orientation:                         
 ---------------------------------------------------------------------
 Center     Atomic      Atomic             Coordinates (Angstroms)
 Number     Number       Type             X           Y           Z
 ---------------------------------------------------------------------
      1          6           0       -0.004811   -0.829664    0.000000
      2          6           0       -1.197677   -1.518365    0.000000
      3          6           0       -1.197677   -2.901110    0.000000
      4          6           0        0.003460   -3.594587    0.000000
      5          6           0        1.212192   -2.896725    0.000000
      6          6           0        1.212192   -1.497618    0.000000
      7          9           0       -0.004811    0.531657   -0.000000
      8          1           0       -2.136546   -0.976309   -0.000000
      9          1           0       -2.135268   -3.442428    0.000000
     10          1           0        0.003460   -4.677611    0.000000
     11          1           0        2.149715   -3.438004    0.000000
     12          1           0        2.138443   -0.935782    0.000000
     13          8           0        0.000051    3.317735   -0.000000
     14          6           0        0.003563    4.521122   -0.000000
     15          1           0        0.004425    5.071844    0.953881
     16          1           0        0.004425    5.071844   -0.953881
     17          1           0       -0.004811    0.886122    2.010275
     18         17           0       -0.004811    0.662620    3.277818
     19          1           0       -0.004811    0.886122   -2.010275
     20         17           0       -0.004811    0.662620   -3.277818
 ---------------------------------------------------------------------
 Rotational constants (GHZ):           0.5948764           0.4739601           0.2905261

 **********************************************************************

            Population analysis using the SCF Density.

 **********************************************************************

 Orbital symmetries:
       Occupied  (A") (A') (A') (A') (A') (A') (A') (A') (A') (A')
                 (A') (A") (A') (A') (A") (A') (A") (A') (A") (A')
                 (A') (A') (A") (A') (A') (A') (A') (A') (A') (A')
                 (A") (A') (A') (A") (A') (A') (A') (A") (A') (A')
                 (A') (A") (A') (A') (A") (A') (A') (A") (A") (A")
                 (A")
       Virtual   (A') (A') (A") (A') (A") (A') (A') (A") (A') (A')
                 (A") (A') (A') (A") (A') (A") (A') (A') (A") (A')
                 (A') (A") (A') (A") (A") (A') (A') (A') (A') (A')
                 (A") (A') (A") (A") (A') (A') (A') (A") (A') (A')
                 (A') (A") (A') (A') (A') (A") (A') (A') (A") (A')
                 (A') (A') (A") (A') (A') (A') (A') (A') (A") (A')
                 (A') (A') (A') (A') (A') (A") (A') (A') (A') (A')
                 (A") (A') (A") (A') (A') (A") (A') (A') (A') (A')
                 (A") (A') (A') (A") (A') (A') (A') (A") (A") (A')
                 (A') (A") (A") (A") (A') (A") (A') (A") (A') (A')
                 (A') (A') (A') (A") (A') (A') (A') (A') (A') (A")
                 (A') (A') (A') (A') (A') (A") (A") (A') (A') (A")
                 (A') (A") (A') (A') (A") (A") (A') (A') (A") (A")
                 (A') (A') (A") (A") (A") (A') (A") (A') (A') (A')
                 (A") (A') (A') (A') (A") (A') (A") (A') (A') (A")
                 (A") (A") (A') (A') (A') (A') (A') (A") (A') (A")
                 (A") (A') (A') (A") (A') (A') (A') (A") (A') (A")
                 (A") (A') (A') (A') (A") (A') (A') (A") (A') (A')
                 (A') (A') (A") (A") (A') (A") (A') (A") (A") (A')
                 (A') (A") (A') (A") (A') (A') (A") (A') (A') (A')
                 (A") (A') (A') (A') (A') (A') (A') (A') (A") (A')
                 (A') (A") (A') (A") (A') (A") (A") (A") (A') (A')
                 (A") (A') (A') (A') (A') (A') (A') (A') (A') (A")
                 (A') (A") (A') (A") (A') (A') (A") (A') (A') (A')
                 (A') (A') (A') (A') (A') (A") (A') (A') (A") (A')
                 (A') (A") (A') (A') (A') (A') (A') (A') (A') (A")
                 (A') (A") (A') (A") (A') (A') (A') (A') (A")
 The electronic state is 1-A'.
 Alpha  occ. eigenvalues -- -102.67404-102.67404 -25.28149 -19.64624 -10.64315
 Alpha  occ. eigenvalues --  -10.63989 -10.56374 -10.56252 -10.56099 -10.55983
 Alpha  occ. eigenvalues --  -10.55492  -9.81727  -9.81727  -7.54211  -7.54211
 Alpha  occ. eigenvalues --   -7.53593  -7.53593  -7.53593  -7.53593  -1.39732
 Alpha  occ. eigenvalues --   -1.19348  -0.98381  -0.93704  -0.93658  -0.86666
 Alpha  occ. eigenvalues --   -0.86262  -0.72555  -0.72218  -0.71709  -0.64537
 Alpha  occ. eigenvalues --   -0.61019  -0.59202  -0.58492  -0.58437  -0.53957
 Alpha  occ. eigenvalues --   -0.52928  -0.52604  -0.51668  -0.51018  -0.49984
 Alpha  occ. eigenvalues --   -0.47821  -0.45242  -0.44206  -0.42052  -0.39482
 Alpha  occ. eigenvalues --   -0.39480  -0.39458  -0.39449  -0.34921  -0.32731
 Alpha  occ. eigenvalues --   -0.31932
 Alpha virt. eigenvalues --   -0.00908  -0.00230   0.00162   0.00666   0.00834
 Alpha virt. eigenvalues --    0.01313   0.01988   0.02010   0.03285   0.03328
 Alpha virt. eigenvalues --    0.04152   0.05133   0.06645   0.06759   0.07507
 Alpha virt. eigenvalues --    0.07542   0.07763   0.08256   0.09056   0.10239
 Alpha virt. eigenvalues --    0.10973   0.11244   0.11334   0.11518   0.11660
 Alpha virt. eigenvalues --    0.12060   0.12618   0.12948   0.13583   0.13657
 Alpha virt. eigenvalues --    0.14022   0.14137   0.15016   0.15800   0.16158
 Alpha virt. eigenvalues --    0.16218   0.16582   0.16757   0.17212   0.17235
 Alpha virt. eigenvalues --    0.18190   0.18638   0.19142   0.20030   0.21386
 Alpha virt. eigenvalues --    0.22049   0.22846   0.23907   0.23950   0.24735
 Alpha virt. eigenvalues --    0.25768   0.25807   0.26747   0.28566   0.29630
 Alpha virt. eigenvalues --    0.30601   0.31463   0.31737   0.32080   0.32953
 Alpha virt. eigenvalues --    0.33089   0.35614   0.38280   0.38359   0.40101
 Alpha virt. eigenvalues --    0.40979   0.42122   0.42909   0.43093   0.45055
 Alpha virt. eigenvalues --    0.48271   0.48365   0.48627   0.50399   0.50570
 Alpha virt. eigenvalues --    0.52541   0.53680   0.54103   0.55110   0.55728
 Alpha virt. eigenvalues --    0.56053   0.57523   0.58041   0.59163   0.59661
 Alpha virt. eigenvalues --    0.60058   0.60284   0.60456   0.60895   0.61620
 Alpha virt. eigenvalues --    0.63368   0.64915   0.65414   0.67930   0.69714
 Alpha virt. eigenvalues --    0.70435   0.72289   0.73225   0.74161   0.75616
 Alpha virt. eigenvalues --    0.76480   0.77777   0.81203   0.81784   0.83282
 Alpha virt. eigenvalues --    0.84083   0.86974   0.88158   0.88844   0.89840
 Alpha virt. eigenvalues --    0.91039   0.91447   0.92494   0.92573   0.94041
 Alpha virt. eigenvalues --    0.94298   0.95193   0.99378   0.99897   1.00100
 Alpha virt. eigenvalues --    1.01562   1.04267   1.05132   1.05297   1.06375
 Alpha virt. eigenvalues --    1.06548   1.07013   1.08862   1.11996   1.14211
 Alpha virt. eigenvalues --    1.16467   1.16569   1.17925   1.20300   1.23463
 Alpha virt. eigenvalues --    1.28197   1.30618   1.32439   1.33949   1.43199
 Alpha virt. eigenvalues --    1.45157   1.48895   1.49078   1.50341   1.51154
 Alpha virt. eigenvalues --    1.51795   1.52544   1.55391   1.56177   1.58570
 Alpha virt. eigenvalues --    1.59969   1.60839   1.61212   1.61383   1.63935
 Alpha virt. eigenvalues --    1.68207   1.68789   1.70147   1.70941   1.72000
 Alpha virt. eigenvalues --    1.77182   1.77366   1.78013   1.79720   1.82116
 Alpha virt. eigenvalues --    1.86136   1.87468   1.89916   1.91814   1.94431
 Alpha virt. eigenvalues --    1.95465   1.96323   1.99004   1.99701   2.00945
 Alpha virt. eigenvalues --    2.04840   2.06995   2.09926   2.10220   2.17232
 Alpha virt. eigenvalues --    2.19786   2.24386   2.25257   2.28809   2.29694
 Alpha virt. eigenvalues --    2.30965   2.31553   2.33952   2.35108   2.35278
 Alpha virt. eigenvalues --    2.44102   2.44680   2.45456   2.47168   2.48458
 Alpha virt. eigenvalues --    2.48701   2.52624   2.52735   2.53542   2.62871
 Alpha virt. eigenvalues --    2.63510   2.65964   2.67303   2.69973   2.72584
 Alpha virt. eigenvalues --    2.73090   2.74765   2.75583   2.75855   2.77610
 Alpha virt. eigenvalues --    2.79562   2.84530   2.85452   2.86792   2.89791
 Alpha virt. eigenvalues --    2.94357   2.94401   2.94498   2.98026   2.99546
 Alpha virt. eigenvalues --    3.14301   3.18620   3.26496   3.38946   3.39347
 Alpha virt. eigenvalues --    3.43205   3.48588   3.52970   3.56158   3.56829
 Alpha virt. eigenvalues --    3.66890   3.74516   3.79002   3.85485   3.93317
 Alpha virt. eigenvalues --    4.02731   4.04921   4.05858   4.09002   4.15745
 Alpha virt. eigenvalues --    4.18923   4.21448   4.85554   4.93994   5.10883
 Alpha virt. eigenvalues --    5.22341   5.80038   6.59106   6.59585   6.89673
 Alpha virt. eigenvalues --    9.96228  10.01490  23.68947  23.99965  24.01878
 Alpha virt. eigenvalues --   24.05041  24.15518  24.16834  24.27326  25.89069
 Alpha virt. eigenvalues --   25.94883  26.00309  26.05525  26.19561  26.21907
 Alpha virt. eigenvalues --   50.05342  66.94631 216.05981 216.12322
          Condensed to atoms (all electrons):
               1          2          3          4          5          6
     1  C   10.190692  -1.016647  -1.435700   0.073765  -1.248590  -0.701976
     2  C   -1.016647  10.397291   1.471812  -0.548551  -0.201224  -4.268544
     3  C   -1.435700   1.471812   6.026171   0.312566  -0.029822  -0.379135
     4  C    0.073765  -0.548551   0.312566   6.340410   0.284026  -0.444088
     5  C   -1.248590  -0.201224  -0.029822   0.284026   5.893737   1.270748
     6  C   -0.701976  -4.268544  -0.379135  -0.444088   1.270748  10.360116
     7  F    0.485009  -0.244197  -0.039099  -0.003528  -0.035286  -0.236950
     8  H   -0.060803   0.438465  -0.058175  -0.013600   0.017299  -0.001897
     9  H    0.011046  -0.020024   0.369875  -0.070636   0.002011   0.026553
    10  H    0.020613  -0.009426  -0.056998   0.446777  -0.054348  -0.006440
    11  H    0.012927   0.028853   0.001663  -0.070415   0.368803  -0.023844
    12  H   -0.063005  -0.004159   0.016800  -0.011676  -0.054135   0.437218
    13  O    0.061344  -0.020082  -0.000979  -0.001074  -0.000692  -0.019311
    14  C   -0.003532   0.000891   0.000786  -0.000195   0.000835   0.002133
    15  H   -0.000670   0.000012  -0.000026   0.000059  -0.000031  -0.000027
    16  H   -0.000670   0.000012  -0.000026   0.000059  -0.000031  -0.000027
    17  H    0.080537  -0.023575  -0.027067   0.023127  -0.026929  -0.030837
    18  Cl  -0.008533   0.007636   0.011283  -0.016196   0.011401   0.011561
    19  H    0.080537  -0.023575  -0.027067   0.023127  -0.026929  -0.030837
    20  Cl  -0.008533   0.007636   0.011283  -0.016196   0.011401   0.011561
               7          8          9         10         11         12
     1  C    0.485009  -0.060803   0.011046   0.020613   0.012927  -0.063005
     2  C   -0.244197   0.438465  -0.020024  -0.009426   0.028853  -0.004159
     3  C   -0.039099  -0.058175   0.369875  -0.056998   0.001663   0.016800
     4  C   -0.003528  -0.013600  -0.070636   0.446777  -0.070415  -0.011676
     5  C   -0.035286   0.017299   0.002011  -0.054348   0.368803  -0.054135
     6  C   -0.236950  -0.001897   0.026553  -0.006440  -0.023844   0.437218
     7  F    9.222039  -0.012036  -0.000810   0.000749  -0.000915  -0.011728
     8  H   -0.012036   0.468902  -0.005730   0.000910   0.001247  -0.000446
     9  H   -0.000810  -0.005730   0.450783  -0.006389   0.000956   0.001236
    10  H    0.000749   0.000910  -0.006389   0.466639  -0.006080   0.000861
    11  H   -0.000915   0.001247   0.000956  -0.006080   0.449771  -0.005004
    12  H   -0.011728  -0.000446   0.001236   0.000861  -0.005004   0.466767
    13  O    0.004169   0.001005   0.000056   0.000002   0.000054   0.001043
    14  C   -0.001115   0.000198  -0.000001   0.000006  -0.000002   0.000222
    15  H   -0.000072  -0.000056  -0.000004  -0.000001  -0.000004  -0.000058
    16  H   -0.000072  -0.000056  -0.000004  -0.000001  -0.000004  -0.000058
    17  H   -0.009310  -0.003340  -0.000421  -0.000248  -0.000367  -0.003481
    18  Cl  -0.000252   0.001211   0.000563   0.000169   0.000530   0.001351
    19  H   -0.009310  -0.003340  -0.000421  -0.000248  -0.000367  -0.003481
    20  Cl  -0.000252   0.001211   0.000563   0.000169   0.000530   0.001351
              13         14         15         16         17         18
     1  C    0.061344  -0.003532  -0.000670  -0.000670   0.080537  -0.008533
     2  C   -0.020082   0.000891   0.000012   0.000012  -0.023575   0.007636
     3  C   -0.000979   0.000786  -0.000026  -0.000026  -0.027067   0.011283
     4  C   -0.001074  -0.000195   0.000059   0.000059   0.023127  -0.016196
     5  C   -0.000692   0.000835  -0.000031  -0.000031  -0.026929   0.011401
     6  C   -0.019311   0.002133  -0.000027  -0.000027  -0.030837   0.011561
     7  F    0.004169  -0.001115  -0.000072  -0.000072  -0.009310  -0.000252
     8  H    0.001005   0.000198  -0.000056  -0.000056  -0.003340   0.001211
     9  H    0.000056  -0.000001  -0.000004  -0.000004  -0.000421   0.000563
    10  H    0.000002   0.000006  -0.000001  -0.000001  -0.000248   0.000169
    11  H    0.000054  -0.000002  -0.000004  -0.000004  -0.000367   0.000530
    12  H    0.001043   0.000222  -0.000058  -0.000058  -0.003481   0.001351
    13  O    8.194354   0.219150  -0.089536  -0.089536   0.007379  -0.003844
    14  C    0.219150   4.949748   0.403801   0.403801  -0.005754  -0.001118
    15  H   -0.089536   0.403801   0.652205  -0.098885  -0.000450   0.001806
    16  H   -0.089536   0.403801  -0.098885   0.652205   0.001175  -0.000459
    17  H    0.007379  -0.005754  -0.000450   0.001175   0.642906   0.249381
    18  Cl  -0.003844  -0.001118   0.001806  -0.000459   0.249381  16.856649
    19  H    0.007379  -0.005754   0.001175  -0.000450   0.003420  -0.000706
    20  Cl  -0.003844  -0.001118  -0.000459   0.001806  -0.000706   0.000133
              19         20
     1  C    0.080537  -0.008533
     2  C   -0.023575   0.007636
     3  C   -0.027067   0.011283
     4  C    0.023127  -0.016196
     5  C   -0.026929   0.011401
     6  C   -0.030837   0.011561
     7  F   -0.009310  -0.000252
     8  H   -0.003340   0.001211
     9  H   -0.000421   0.000563
    10  H   -0.000248   0.000169
    11  H   -0.000367   0.000530
    12  H   -0.003481   0.001351
    13  O    0.007379  -0.003844
    14  C   -0.005754  -0.001118
    15  H    0.001175  -0.000459
    16  H   -0.000450   0.001806
    17  H    0.003420  -0.000706
    18  Cl  -0.000706   0.000133
    19  H    0.642906   0.249381
    20  Cl   0.249381  16.856649
 Mulliken charges:
               1
     1  C   -0.467811
     2  C    0.027395
     3  C   -0.168144
     4  C   -0.307759
     5  C   -0.182245
     6  C    0.024024
     7  F   -0.107036
     8  H    0.229030
     9  H    0.240798
    10  H    0.203283
    11  H    0.241670
    12  H    0.230379
    13  O   -0.267037
    14  C    0.037018
    15  H    0.131222
    16  H    0.131222
    17  H    0.124562
    18  Cl  -0.122566
    19  H    0.124562
    20  Cl  -0.122566
 Sum of Mulliken charges =  -0.00000
 Mulliken charges with hydrogens summed into heavy atoms:
               1
     1  C   -0.467811
     2  C    0.256425
     3  C    0.072654
     4  C   -0.104476
     5  C    0.059424
     6  C    0.254403
     7  F   -0.107036
    13  O   -0.267037
    14  C    0.299462
    18  Cl   0.001996
    20  Cl   0.001996
 Electronic spatial extent (au):  <R**2>=           3614.6633
 Charge=             -0.0000 electrons
 Dipole moment (field-independent basis, Debye):
    X=             -0.0041    Y=              0.9366    Z=             -0.0000  Tot=              0.9366
 Quadrupole moment (field-independent basis, Debye-Ang):
   XX=            -73.2205   YY=            -47.7103   ZZ=            -97.5177
   XY=              0.1427   XZ=              0.0000   YZ=              0.0000
 Traceless Quadrupole moment (field-independent basis, Debye-Ang):
   XX=             -0.4044   YY=             25.1059   ZZ=            -24.7015
   XY=              0.1427   XZ=              0.0000   YZ=              0.0000
 Octapole moment (field-independent basis, Debye-Ang**2):
  XXX=             -0.0949  YYY=            121.4861  ZZZ=             -0.0000  XYY=             -0.1215
  XXY=             -4.6453  XXZ=             -0.0000  XZZ=             -0.0751  YZZ=             11.7964
  YYZ=             -0.0000  XYZ=              0.0000
 Hexadecapole moment (field-independent basis, Debye-Ang**3):
 XXXX=           -298.7174 YYYY=          -1693.6521 ZZZZ=          -1896.9256 XXXY=              1.0016
 XXXZ=             -0.0000 YYYX=              1.9819 YYYZ=              0.0000 ZZZX=             -0.0000
 ZZZY=             -0.0000 XXYY=           -452.0129 XXZZ=           -378.0759 YYZZ=           -770.4834
 XXYZ=              0.0000 YYXZ=              0.0000 ZZXY=              0.5249
 N-N= 7.170935262394D+02 E-N=-4.670135192737D+03  KE= 1.364020960613D+03
 Symmetry A'   KE= 8.847724572579D+02
 Symmetry A"   KE= 4.792485033553D+02
 1\1\GINC-R820\POpt\RM062X\6-311++G(d,p)\C7H9Cl2F1O1\ZJXU\01-Apr-2024\1
 \\# m062x 6-311++G(d,p) opt=z-matrix scrf=(solvent=chloroform)\\test\\
 0,1\C\C,1,d1\C,2,d2,1,120.\C,3,d3,2,120.,1,0.,0\C,4,d4,3,120.,2,0.,0\C
 ,5,d5,4,120.,3,0.,0\F,1,d6,2,120.,3,180.,0\H,2,d7,3,120.,4,180.,0\H,3,
 d8,4,120.,5,180.,0\H,4,d9,5,120.,6,180.,0\H,5,d10,6,120.,1,180.,0\H,6,
 d11,1,120.,2,180.,0\O,7,d12,1,179.9,3,180.,0\C,13,d13,1,179.9,2,180.,0
 \H,14,d14,1,120.,2,90.,0\H,14,d15,1,120.,2,-90.,0\H,7,d16,1,100.,2,90.
 ,0\Cl,17,d17,7,160.,1,0.,0\H,7,d18,1,100.,2,-90.,0\Cl,19,d19,7,160.,1,
 0.,0\\d1=1.37740323\d2=1.38274493\d3=1.38695361\d4=1.39572366\d5=1.399
 1069\d6=1.36132019\d7=1.0841119\d8=1.08263663\d9=1.08302386\d10=1.0825
 5821\d11=1.08332905\d12=2.78608307\d13=1.20339158\d14=1.1014464\d15=1.
 1014464\d16=2.0412872\d17=1.28709618\d18=2.04128719\d19=1.28709618\\Ve
 rsion=ES64L-G16RevB.01\State=1-A'\HF=-1367.539971\RMSD=8.307e-09\RMSF=
 3.998e-03\Dipole=-0.3199045,0.,-0.1828477\Quadrupole=13.8321584,-18.36
 49611,4.5328028,0.,8.2656632,0.\PG=CS [SG(C7H5F1O1),X(H4Cl2)]\\@


 TO BEHOLD HARMS OF OUR OWN HANDS DOING,
 WHERE NONE BESIDE US WROUGHT,
 CAUSES SHARP RUING...

                                         SOPHOCLES
 Job cpu time:       0 days  2 hours 33 minutes  5.3 seconds.
 Elapsed time:       0 days  1 hours 16 minutes 36.2 seconds.
 File lengths (MBytes):  RWF=    209 Int=      0 D2E=      0 Chk=     11 Scr=      1
 Normal termination of Gaussian 16 at Mon Apr  1 14:35:39 2024.
