 Entering Gaussian System, Link 0=g16
 Input=model_H1.gjf
 Output=model_H1.log
 Initial command:
 /home/zjxu/prog/g16/l1.exe "/home/zjxu/zjhan/5_model/HCl/chloroform/Gau-32074.inp" -scrdir="/home/zjxu/zjhan/5_model/HCl/chloroform/"
 Entering Link 1 = /home/zjxu/prog/g16/l1.exe PID=     32075.
  
 Copyright (c) 1988-2017, Gaussian, Inc.  All Rights Reserved.
  
 This is part of the Gaussian(R) 16 program.  It is based on
 the Gaussian(R) 09 system (copyright 2009, Gaussian, Inc.),
 the Gaussian(R) 03 system (copyright 2003, Gaussian, Inc.),
 the Gaussian(R) 98 system (copyright 1998, Gaussian, Inc.),
 the Gaussian(R) 94 system (copyright 1995, Gaussian, Inc.),
 the Gaussian 92(TM) system (copyright 1992, Gaussian, Inc.),
 the Gaussian 90(TM) system (copyright 1990, Gaussian, Inc.),
 the Gaussian 88(TM) system (copyright 1988, Gaussian, Inc.),
 the Gaussian 86(TM) system (copyright 1986, Carnegie Mellon
 University), and the Gaussian 82(TM) system (copyright 1983,
 Carnegie Mellon University). Gaussian is a federally registered
 trademark of Gaussian, Inc.
  
 This software contains proprietary and confidential information,
 including trade secrets, belonging to Gaussian, Inc.
  
 This software is provided under written license and may be
 used, copied, transmitted, or stored only in accord with that
 written license.
  
 The following legend is applicable only to US Government
 contracts under FAR:
  
                    RESTRICTED RIGHTS LEGEND
  
 Use, reproduction and disclosure by the US Government is
 subject to restrictions as set forth in subparagraphs (a)
 and (c) of the Commercial Computer Software - Restricted
 Rights clause in FAR 52.227-19.
  
 Gaussian, Inc.
 340 Quinnipiac St., Bldg. 40, Wallingford CT 06492
  
  
 ---------------------------------------------------------------
 Warning -- This program may not be used in any manner that
 competes with the business of Gaussian, Inc. or will provide
 assistance to any competitor of Gaussian, Inc.  The licensee
 of this program is prohibited from giving any competitor of
 Gaussian, Inc. access to this program.  By using this program,
 the user acknowledges that Gaussian, Inc. is engaged in the
 business of creating and licensing software in the field of
 computational chemistry and represents and warrants to the
 licensee that it is not a competitor of Gaussian, Inc. and that
 it will not use this program in any manner prohibited above.
 ---------------------------------------------------------------
  

 Cite this work as:
 Gaussian 16, Revision B.01,
 M. J. Frisch, G. W. Trucks, H. B. Schlegel, G. E. Scuseria, 
 M. A. Robb, J. R. Cheeseman, G. Scalmani, V. Barone, 
 G. A. Petersson, H. Nakatsuji, X. Li, M. Caricato, A. V. Marenich, 
 J. Bloino, B. G. Janesko, R. Gomperts, B. Mennucci, H. P. Hratchian, 
 J. V. Ortiz, A. F. Izmaylov, J. L. Sonnenberg, D. Williams-Young, 
 F. Ding, F. Lipparini, F. Egidi, J. Goings, B. Peng, A. Petrone, 
 T. Henderson, D. Ranasinghe, V. G. Zakrzewski, J. Gao, N. Rega, 
 G. Zheng, W. Liang, M. Hada, M. Ehara, K. Toyota, R. Fukuda, 
 J. Hasegawa, M. Ishida, T. Nakajima, Y. Honda, O. Kitao, H. Nakai, 
 T. Vreven, K. Throssell, J. A. Montgomery, Jr., J. E. Peralta, 
 F. Ogliaro, M. J. Bearpark, J. J. Heyd, E. N. Brothers, K. N. Kudin, 
 V. N. Staroverov, T. A. Keith, R. Kobayashi, J. Normand, 
 K. Raghavachari, A. P. Rendell, J. C. Burant, S. S. Iyengar, 
 J. Tomasi, M. Cossi, J. M. Millam, M. Klene, C. Adamo, R. Cammi, 
 J. W. Ochterski, R. L. Martin, K. Morokuma, O. Farkas, 
 J. B. Foresman, and D. J. Fox, Gaussian, Inc., Wallingford CT, 2016.
 
 ******************************************
 Gaussian 16:  ES64L-G16RevB.01 20-Dec-2017
                 2-Apr-2024 
 ******************************************
 %mem=2GB
 %nproc=2
 Will use up to    2 processors via shared memory.
 %chk=model_H1
 ----------------------------------------------------------------------
 # m062x 6-311++G(d,p) opt=(maxcyc=50,z-matrix) scrf=(solvent=chlorofor
 m)
 ----------------------------------------------------------------------
 1/6=50,10=7,18=40,26=3,38=1/1,3;
 2/12=2,17=6,18=5,29=3,40=1/2;
 3/5=4,6=6,7=1111,11=2,25=1,30=1,70=2201,71=1,72=7,74=-55/1,2,3;
 4//1;
 5/5=2,38=5,53=7/2;
 6/7=2,8=2,9=2,10=2,28=1/1;
 7/29=1/1,2,3,16;
 1/6=50,10=7,18=40,26=3/3(2);
 2/29=3/2;
 99//99;
 2/29=3/2;
 3/5=4,6=6,7=1111,11=2,25=1,30=1,70=2205,71=1,72=7,74=-55/1,2,3;
 4/5=5,16=3,69=1/1;
 5/5=2,38=5,53=7/2;
 7//1,2,3,16;
 1/6=50,18=40,26=3/3(-5);
 2/29=3/2;
 6/7=2,8=2,9=2,10=2,19=2,28=1/1;
 99/9=1/99;
 ----
 test
 ----
 Symbolic Z-matrix:
 Charge =  0 Multiplicity = 1
 C1
 C2                   1    d1
 C3                   2    d2       1     120. 
 C4                   3    d3       2     120.     1     0.       0
 C5                   4    d4       3     120.     2     0.       0
 C6                   5    d5       4     120.     3     0.       0
 F7                   1    d6       2     120.     3     180.     0
 H8                   2    d7       3     120.     4     180.     0
 H9                   3    d8       4     120.     5     180.     0
 H10                  4    d9       5     120.     6     180.     0
 H11                  5    d10      6     120.     1     180.     0
 H12                  6    d11      1     120.     2     180.     0
 O13                  7    d12      1     179.9    3     180.     0
 C14                  13   d13      1     179.9    2     180.     0
 H15                  14   d14      1     120.     2     90.      0
 H16                  14   d15      1     120.     2    -90.      0
 H17                  7    d16      1     100.     2     90.      0
 Cl18                 17   d17      7     160.     1     0.       0
       Variables:
  d1                    1.3                      
  d2                    1.3                      
  d3                    1.3                      
  d4                    1.3                      
  d5                    1.3                      
  d6                    1.4                      
  d7                    1.                       
  d8                    1.                       
  d9                    1.                       
  d10                   1.                       
  d11                   1.                       
  d12                   2.8                      
  d13                   1.2                      
  d14                   1.                       
  d15                   1.                       
  d16                   2.3                      
  d17                   0.9                      
 

 GradGradGradGradGradGradGradGradGradGradGradGradGradGradGradGradGradGrad
 Berny optimization.
 Initialization pass.
                       ----------------------------
                       !    Initial Parameters    !
                       ! (Angstroms and Degrees)  !
 ----------------------                            ----------------------
 !      Name          Value   Derivative information (Atomic Units)     !
 ------------------------------------------------------------------------
 !       d1          1.3      estimate D2E/DX2                          !
 !       d2          1.3      estimate D2E/DX2                          !
 !       d3          1.3      estimate D2E/DX2                          !
 !       d4          1.3      estimate D2E/DX2                          !
 !       d5          1.3      estimate D2E/DX2                          !
 !       d6          1.4      estimate D2E/DX2                          !
 !       d7          1.0      estimate D2E/DX2                          !
 !       d8          1.0      estimate D2E/DX2                          !
 !       d9          1.0      estimate D2E/DX2                          !
 !       d10         1.0      estimate D2E/DX2                          !
 !       d11         1.0      estimate D2E/DX2                          !
 !       d12         2.8      estimate D2E/DX2                          !
 !       d13         1.2      estimate D2E/DX2                          !
 !       d14         1.0      estimate D2E/DX2                          !
 !       d15         1.0      estimate D2E/DX2                          !
 !       d16         2.3      estimate D2E/DX2                          !
 !       d17         0.9      estimate D2E/DX2                          !
 ------------------------------------------------------------------------
 Trust Radius=3.00D-01 FncErr=1.00D-07 GrdErr=1.00D-06 EigMax=2.50D+02 EigMin=1.00D-04
 Number of steps in this run=     50 maximum allowed number of steps=    100.
 GradGradGradGradGradGradGradGradGradGradGradGradGradGradGradGradGradGrad

 ---------------------------------------------------------------------------------------------------
                            Z-MATRIX (ANGSTROMS AND DEGREES)
   CD    Cent   Atom    N1       Length/X        N2       Alpha/Y        N3        Beta/Z          J
 ---------------------------------------------------------------------------------------------------
      1      1  C 
      2      2  C        1   1.300000(     1)
      3      3  C        2   1.300000(     2)      1  120.000(    18)
      4      4  C        3   1.300000(     3)      2  120.000(    19)      1    0.000(    34)      0
      5      5  C        4   1.300000(     4)      3  120.000(    20)      2    0.000(    35)      0
      6      6  C        5   1.300000(     5)      4  120.000(    21)      3    0.000(    36)      0
      7      7  F        1   1.400000(     6)      2  120.000(    22)      3  180.000(    37)      0
      8      8  H        2   1.000000(     7)      3  120.000(    23)      4  180.000(    38)      0
      9      9  H        3   1.000000(     8)      4  120.000(    24)      5  180.000(    39)      0
     10     10  H        4   1.000000(     9)      5  120.000(    25)      6  180.000(    40)      0
     11     11  H        5   1.000000(    10)      6  120.000(    26)      1  180.000(    41)      0
     12     12  H        6   1.000000(    11)      1  120.000(    27)      2  180.000(    42)      0
     13     13  O        7   2.800000(    12)      1  179.900(    28)      3  180.000(    43)      0
     14     14  C       13   1.200000(    13)      1  179.900(    29)      2  180.000(    44)      0
     15     15  H       14   1.000000(    14)      1  120.000(    30)      2   90.000(    45)      0
     16     16  H       14   1.000000(    15)      1  120.000(    31)      2  -90.000(    46)      0
     17     17  H        7   2.300000(    16)      1  100.000(    32)      2   90.000(    47)      0
     18     18  Cl      17   0.900000(    17)      7  160.000(    33)      1    0.000(    48)      0
 ---------------------------------------------------------------------------------------------------
                         Z-Matrix orientation:                         
 ---------------------------------------------------------------------
 Center     Atomic      Atomic             Coordinates (Angstroms)
 Number     Number       Type             X           Y           Z
 ---------------------------------------------------------------------
      1          6           0        0.000000    0.000000    0.000000
      2          6           0        0.000000    0.000000    1.300000
      3          6           0        1.125833    0.000000    1.950000
      4          6           0        2.251666    0.000000    1.300000
      5          6           0        2.251666    0.000000   -0.000000
      6          6           0        1.125833    0.000000   -0.650000
      7          9           0       -1.212436   -0.000000   -0.700000
      8          1           0       -0.866025   -0.000000    1.800000
      9          1           0        1.125833   -0.000000    2.950000
     10          1           0        3.117691   -0.000000    1.800000
     11          1           0        3.117691   -0.000000   -0.500000
     12          1           0        1.125833   -0.000000   -1.650000
     13          8           0       -3.634860   -0.000000   -2.104230
     14          6           0       -4.672340   -0.000000   -2.707251
     15          1           0       -5.104965    0.866025   -2.957922
     16          1           0       -5.104965   -0.866025   -2.957922
     17          1           0       -1.558318    2.265058   -0.899695
     18         17           0       -1.422973    3.151385   -0.821554
 ---------------------------------------------------------------------
                    Distance matrix (angstroms):
                    1          2          3          4          5
     1  C    0.000000
     2  C    1.300000   0.000000
     3  C    2.251666   1.300000   0.000000
     4  C    2.600000   2.251666   1.300000   0.000000
     5  C    2.251666   2.600000   2.251666   1.300000   0.000000
     6  C    1.300000   2.251666   2.600000   2.251666   1.300000
     7  F    1.400000   2.338803   3.534119   4.000000   3.534119
     8  H    1.997498   1.000000   1.997498   3.157531   3.600000
     9  H    3.157531   1.997498   1.000000   1.997498   3.157531
    10  H    3.600000   3.157531   1.997498   1.000000   1.997498
    11  H    3.157531   3.600000   3.157531   1.997498   1.000000
    12  H    1.997498   3.157531   3.600000   3.157531   1.997498
    13  O    4.199999   4.980059   6.253077   6.799997   6.251317
    14  C    5.399997   6.155390   7.436988   7.999995   7.434452
    15  H    5.963218   6.703772   7.978755   8.543999   7.976172
    16  H    5.963218   6.703772   7.978755   8.543999   7.976172
    17  H    2.892800   3.521009   4.522822   4.948245   4.522822
    18  Cl   3.554016   4.056731   4.910107   5.285375   4.910107
                    6          7          8          9         10
     6  C    0.000000
     7  F    2.338803   0.000000
     8  H    3.157531   2.523886   0.000000
     9  H    3.600000   4.334743   2.300000   0.000000
    10  H    3.157531   5.000000   3.983717   2.300000   0.000000
    11  H    1.997498   4.334743   4.600000   3.983717   2.300000
    12  H    1.000000   2.523886   3.983717   4.600000   3.983717
    13  O    4.977849   2.800000   4.786382   6.943301   7.799997
    14  C    6.152324   3.999999   5.899436   8.100821   8.999995
    15  H    6.700697   4.582575   6.430896   8.629970   9.539387
    16  H    6.700697   4.582575   6.430896   8.629970   9.539387
    17  H    3.521009   2.300000   3.591394   5.211076   5.855246
    18  Cl   4.056731   3.160748   4.136902   5.536448   6.117303
                   11         12         13         14         15
    11  H    0.000000
    12  H    2.300000   0.000000
    13  O    6.940497   4.782313   0.000000
    14  C    8.096700   5.893776   1.200000   0.000000
    15  H    8.625744   6.425224   1.907878   1.000000   0.000000
    16  H    8.625744   6.425224   1.907878   1.000000   1.732051
    17  H    5.211076   3.591394   3.300517   4.253807   4.332700
    18  Cl   5.536448   4.136902   4.058193   4.903618   4.831563
                   16         17         18
    16  H    0.000000
    17  H    5.159329   0.000000
    18  Cl   5.853266   0.900000   0.000000
 Stoichiometry    C7H8ClFO
 Framework group  C1[X(C7H8ClFO)]
 Deg. of freedom    48
 Full point group                 C1      NOp   1
 Largest Abelian subgroup         C1      NOp   1
 Largest concise Abelian subgroup C1      NOp   1
                         Standard orientation:                         
 ---------------------------------------------------------------------
 Center     Atomic      Atomic             Coordinates (Angstroms)
 Number     Number       Type             X           Y           Z
 ---------------------------------------------------------------------
      1          6           0       -0.845935   -0.562559   -0.001337
      2          6           0       -1.491799   -0.478897   -1.126442
      3          6           0       -2.781420   -0.314963   -1.124989
      4          6           0       -3.425178   -0.234691    0.001569
      5          6           0       -2.779314   -0.318352    1.126674
      6          6           0       -1.489692   -0.482286    1.125221
      7          9           0        0.542888   -0.739103   -0.002902
      8          1           0       -0.996601   -0.540645   -1.993025
      9          1           0       -3.278239   -0.250609   -1.990454
     10          1           0       -4.417194   -0.108588    0.002687
     11          1           0       -3.274512   -0.256604    1.993257
     12          1           0       -0.992874   -0.546641    1.990686
     13          8           0        3.320535   -1.092198   -0.001145
     14          6           0        4.510953   -1.243526    0.001004
     15          1           0        5.116171   -0.447468    0.002412
     16          1           0        4.897752   -2.165690    0.000030
     17          1           0        1.224725    1.457506   -0.000234
     18         17           0        1.181459    2.356465    0.001159
 ---------------------------------------------------------------------
 Rotational constants (GHZ):           1.4908804           0.4880710           0.4139825
 Standard basis: 6-311++G(d,p) (5D, 7F)
 There are   294 symmetry adapted cartesian basis functions of A   symmetry.
 There are   284 symmetry adapted basis functions of A   symmetry.
   284 basis functions,   449 primitive gaussians,   294 cartesian basis functions
    42 alpha electrons       42 beta electrons
       nuclear repulsion energy       556.5025655466 Hartrees.
 NAtoms=   18 NActive=   18 NUniq=   18 SFac= 1.00D+00 NAtFMM=   60 NAOKFM=F Big=F
 Integral buffers will be    131072 words long.
 Raffenetti 2 integral format.
 Two-electron integral symmetry is turned on.
 ------------------------------------------------------------------------------
 Polarizable Continuum Model (PCM)
 =================================
 Model                : PCM.
 Atomic radii         : UFF (Universal Force Field).
 Polarization charges : Total charges.
 Charge compensation  : None.
 Solution method      : On-the-fly selection.
 Cavity type          : Scaled VdW (van der Waals Surface) (Alpha=1.100).
 Cavity algorithm     : GePol (No added spheres)
                        Default sphere list used, NSphG=   18.
                        Lebedev-Laikov grids with approx.  5.0 points / Ang**2.
                        Smoothing algorithm: York/Karplus (Gamma=1.0000).
                        Polarization charges: spherical gaussians, with
                                              point-specific exponents (IZeta= 3).
                        Self-potential: point-specific (ISelfS= 7).
                        Self-field    : sphere-specific E.n sum rule (ISelfD= 2).
 1st derivatives      : Analytical E(r).r(x)/FMM algorithm (CHGder, D1EAlg=3).
                        Cavity 1st derivative terms included.
 Solvent              : Chloroform, Eps=   4.711300 Eps(inf)=   2.090627
 ------------------------------------------------------------------------------
 Spheres list:
 ISph  on   Nord     Re0    Alpha      Xe            Ye            Ze
    1   C      1    1.9255  1.100     -0.845935     -0.562559     -0.001337
    2   C      2    1.9255  1.100     -1.491799     -0.478897     -1.126442
    3   C      3    1.9255  1.100     -2.781420     -0.314963     -1.124989
    4   C      4    1.9255  1.100     -3.425178     -0.234691      0.001569
    5   C      5    1.9255  1.100     -2.779314     -0.318352      1.126674
    6   C      6    1.9255  1.100     -1.489692     -0.482286      1.125221
    7   F      7    1.6820  1.100      0.542888     -0.739103     -0.002902
    8   H      8    1.4430  1.100     -0.996601     -0.540645     -1.993025
    9   H      9    1.4430  1.100     -3.278239     -0.250609     -1.990454
   10   H     10    1.4430  1.100     -4.417194     -0.108588      0.002687
   11   H     11    1.4430  1.100     -3.274512     -0.256604      1.993257
   12   H     12    1.4430  1.100     -0.992874     -0.546641      1.990686
   13   O     13    1.7500  1.100      3.320535     -1.092198     -0.001145
   14   C     14    1.9255  1.100      4.510953     -1.243526      0.001004
   15   H     15    1.4430  1.100      5.116171     -0.447468      0.002412
   16   H     16    1.4430  1.100      4.897752     -2.165690      0.000030
   17   H     17    1.4430  1.100      1.224725      1.457506     -0.000234
   18  Cl     18    1.9735  1.100      1.181459      2.356465      0.001159
 ------------------------------------------------------------------------------
 One-electron integrals computed using PRISM.
 NBasis=   284 RedAO= T EigKep=  4.19D-06  NBF=   284
 NBsUse=   283 1.00D-06 EigRej=  5.62D-07 NBFU=   283
 ExpMin= 3.60D-02 ExpMax= 1.06D+05 ExpMxC= 3.62D+03 IAcc=3 IRadAn=         5 AccDes= 0.00D+00
 Harris functional with IExCor= 1009 and IRadAn=       5 diagonalized for initial guess.
 HarFok:  IExCor= 1009 AccDes= 0.00D+00 IRadAn=         5 IDoV= 1 UseB2=F ITyADJ=14
 ICtDFT=  3500011 ScaDFX=  1.000000  1.000000  1.000000  1.000000
 FoFCou: FMM=F IPFlag=           0 FMFlag=      100000 FMFlg1=           0
         NFxFlg=           0 DoJE=T BraDBF=F KetDBF=T FulRan=T
         wScrn=  0.000000 ICntrl=       500 IOpCl=  0 I1Cent=   200000004 NGrid=           0
         NMat0=    1 NMatS0=      1 NMatT0=    0 NMatD0=    1 NMtDS0=    0 NMtDT0=    0
 Petite list used in FoFCou.
 Requested convergence on RMS density matrix=1.00D-08 within 128 cycles.
 Requested convergence on MAX density matrix=1.00D-06.
 Requested convergence on             energy=1.00D-06.
 No special actions if energy rises.
 Inv3:  Mode=1 IEnd=     9915372.
 Iteration    1 A*A^-1 deviation from unit magnitude is 7.44D-15 for   1806.
 Iteration    1 A*A^-1 deviation from orthogonality  is 1.65D-15 for   1811   1717.
 Iteration    1 A^-1*A deviation from unit magnitude is 7.44D-15 for   1806.
 Iteration    1 A^-1*A deviation from orthogonality  is 1.55D-15 for    998    744.
 Error on total polarization charges =  0.01078
 SCF Done:  E(RM062X) =  -906.447134368     A.U. after   14 cycles
            NFock= 14  Conv=0.26D-08     -V/T= 1.9985

 **********************************************************************

            Population analysis using the SCF Density.

 **********************************************************************

 Orbital symmetries:
       Occupied  (A) (A) (A) (A) (A) (A) (A) (A) (A) (A) (A) (A)
                 (A) (A) (A) (A) (A) (A) (A) (A) (A) (A) (A) (A)
                 (A) (A) (A) (A) (A) (A) (A) (A) (A) (A) (A) (A)
                 (A) (A) (A) (A) (A) (A)
       Virtual   (A) (A) (A) (A) (A) (A) (A) (A) (A) (A) (A) (A)
                 (A) (A) (A) (A) (A) (A) (A) (A) (A) (A) (A) (A)
                 (A) (A) (A) (A) (A) (A) (A) (A) (A) (A) (A) (A)
                 (A) (A) (A) (A) (A) (A) (A) (A) (A) (A) (A) (A)
                 (A) (A) (A) (A) (A) (A) (A) (A) (A) (A) (A) (A)
                 (A) (A) (A) (A) (A) (A) (A) (A) (A) (A) (A) (A)
                 (A) (A) (A) (A) (A) (A) (A) (A) (A) (A) (A) (A)
                 (A) (A) (A) (A) (A) (A) (A) (A) (A) (A) (A) (A)
                 (A) (A) (A) (A) (A) (A) (A) (A) (A) (A) (A) (A)
                 (A) (A) (A) (A) (A) (A) (A) (A) (A) (A) (A) (A)
                 (A) (A) (A) (A) (A) (A) (A) (A) (A) (A) (A) (A)
                 (A) (A) (A) (A) (A) (A) (A) (A) (A) (A) (A) (A)
                 (A) (A) (A) (A) (A) (A) (A) (A) (A) (A) (A) (A)
                 (A) (A) (A) (A) (A) (A) (A) (A) (A) (A) (A) (A)
                 (A) (A) (A) (A) (A) (A) (A) (A) (A) (A) (A) (A)
                 (A) (A) (A) (A) (A) (A) (A) (A) (A) (A) (A) (A)
                 (A) (A) (A) (A) (A) (A) (A) (A) (A) (A) (A) (A)
                 (A) (A) (A) (A) (A) (A) (A) (A) (A) (A) (A) (A)
                 (A) (A) (A) (A) (A) (A) (A) (A) (A) (A) (A) (A)
                 (A) (A) (A) (A) (A) (A) (A) (A) (A) (A) (A) (A)
                 (A)
 The electronic state is 1-A.
 Alpha  occ. eigenvalues -- -102.64519 -25.24502 -19.63687 -10.61440 -10.60995
 Alpha  occ. eigenvalues --  -10.52210 -10.52207 -10.52027 -10.52016 -10.51310
 Alpha  occ. eigenvalues --   -9.81011  -7.53730  -7.52559  -7.52558  -1.35030
 Alpha  occ. eigenvalues --   -1.18868  -1.03393  -1.02962  -0.89170  -0.88219
 Alpha  occ. eigenvalues --   -0.74917  -0.73588  -0.72093  -0.66097  -0.60387
 Alpha  occ. eigenvalues --   -0.58869  -0.58747  -0.58231  -0.55673  -0.53772
 Alpha  occ. eigenvalues --   -0.53239  -0.52383  -0.49458  -0.47475  -0.47257
 Alpha  occ. eigenvalues --   -0.44321  -0.41893  -0.40484  -0.40469  -0.34825
 Alpha  occ. eigenvalues --   -0.33719  -0.32574
 Alpha virt. eigenvalues --   -0.00438   0.00038   0.00888   0.01555   0.02224
 Alpha virt. eigenvalues --    0.02503   0.02684   0.03524   0.03690   0.04331
 Alpha virt. eigenvalues --    0.04811   0.06590   0.07072   0.07468   0.07822
 Alpha virt. eigenvalues --    0.08237   0.09039   0.11053   0.11312   0.11569
 Alpha virt. eigenvalues --    0.11977   0.12312   0.13126   0.13596   0.13922
 Alpha virt. eigenvalues --    0.14346   0.14535   0.15017   0.15164   0.15174
 Alpha virt. eigenvalues --    0.15898   0.16630   0.17102   0.17593   0.18358
 Alpha virt. eigenvalues --    0.18618   0.19817   0.20760   0.21161   0.21978
 Alpha virt. eigenvalues --    0.22833   0.23670   0.23913   0.25037   0.26527
 Alpha virt. eigenvalues --    0.26690   0.28098   0.30127   0.31444   0.32479
 Alpha virt. eigenvalues --    0.33430   0.33480   0.34896   0.35910   0.36759
 Alpha virt. eigenvalues --    0.37460   0.39451   0.40039   0.40997   0.42589
 Alpha virt. eigenvalues --    0.43026   0.43907   0.45573   0.46969   0.49573
 Alpha virt. eigenvalues --    0.50469   0.51174   0.52947   0.54614   0.54797
 Alpha virt. eigenvalues --    0.56753   0.58227   0.59212   0.59331   0.59672
 Alpha virt. eigenvalues --    0.60810   0.61614   0.61829   0.64194   0.64550
 Alpha virt. eigenvalues --    0.65459   0.66148   0.67360   0.70295   0.70511
 Alpha virt. eigenvalues --    0.72231   0.74622   0.75273   0.76581   0.78814
 Alpha virt. eigenvalues --    0.79823   0.81641   0.81843   0.85252   0.85676
 Alpha virt. eigenvalues --    0.89203   0.90133   0.90296   0.91808   0.93856
 Alpha virt. eigenvalues --    0.96116   0.98888   1.00328   1.01207   1.02206
 Alpha virt. eigenvalues --    1.02473   1.05046   1.06307   1.08142   1.08269
 Alpha virt. eigenvalues --    1.10496   1.11742   1.16266   1.16693   1.17371
 Alpha virt. eigenvalues --    1.19811   1.23277   1.24131   1.26582   1.27588
 Alpha virt. eigenvalues --    1.32896   1.34805   1.35348   1.42167   1.51821
 Alpha virt. eigenvalues --    1.52363   1.52467   1.54432   1.56752   1.60748
 Alpha virt. eigenvalues --    1.61352   1.63242   1.65027   1.67741   1.68294
 Alpha virt. eigenvalues --    1.69919   1.72283   1.72849   1.76633   1.76789
 Alpha virt. eigenvalues --    1.78812   1.81979   1.81994   1.85294   1.85837
 Alpha virt. eigenvalues --    1.85974   1.90282   1.91835   1.94409   1.97347
 Alpha virt. eigenvalues --    1.98941   2.04463   2.04576   2.05850   2.05907
 Alpha virt. eigenvalues --    2.07420   2.11629   2.15978   2.16826   2.17423
 Alpha virt. eigenvalues --    2.19201   2.20140   2.21920   2.24047   2.28897
 Alpha virt. eigenvalues --    2.33055   2.36557   2.37690   2.41066   2.46582
 Alpha virt. eigenvalues --    2.48306   2.50677   2.51184   2.58221   2.63652
 Alpha virt. eigenvalues --    2.67037   2.71035   2.71606   2.75210   2.76865
 Alpha virt. eigenvalues --    2.76879   2.78747   2.79378   2.81193   2.86539
 Alpha virt. eigenvalues --    2.86707   2.87990   2.88925   2.90537   2.96686
 Alpha virt. eigenvalues --    2.98209   2.98801   3.03499   3.08260   3.12016
 Alpha virt. eigenvalues --    3.24287   3.27407   3.34753   3.39965   3.42148
 Alpha virt. eigenvalues --    3.46630   3.55479   3.59994   3.61891   3.64716
 Alpha virt. eigenvalues --    3.75357   3.75833   3.87376   3.89455   3.99223
 Alpha virt. eigenvalues --    4.00436   4.05569   4.09157   4.14373   4.18468
 Alpha virt. eigenvalues --    4.19542   4.26461   4.26491   4.36717   4.95826
 Alpha virt. eigenvalues --    4.95970   5.11470   5.23880   5.81507   6.52426
 Alpha virt. eigenvalues --    6.61772   6.89117  10.31113  23.73120  24.17450
 Alpha virt. eigenvalues --   24.27084  24.31855  24.54510  24.57607  24.73054
 Alpha virt. eigenvalues --   25.91119  26.03472  27.10196  50.06892  66.97393
 Alpha virt. eigenvalues --  216.52305
          Condensed to atoms (all electrons):
               1          2          3          4          5          6
     1  C   10.430082  -0.962234  -1.211336   0.011769  -1.210368  -0.958918
     2  C   -0.962234  12.159726   0.855029  -0.685132   0.155156  -5.832745
     3  C   -1.211336   0.855029   5.769024   0.411930  -0.139265   0.151209
     4  C    0.011769  -0.685132   0.411930   6.527047   0.411146  -0.679396
     5  C   -1.210368   0.155156  -0.139265   0.411146   5.769121   0.850940
     6  C   -0.958918  -5.832745   0.151209  -0.679396   0.850940  12.158836
     7  F    0.555474  -0.271266  -0.048397   0.019534  -0.048637  -0.271929
     8  H   -0.180963   0.644445  -0.022246  -0.009249   0.018619  -0.112863
     9  H    0.023007  -0.070337   0.424608  -0.113832  -0.008648   0.079231
    10  H    0.028546  -0.019030  -0.060866   0.489993  -0.060945  -0.018817
    11  H    0.023056   0.079330  -0.008620  -0.113877   0.424749  -0.070608
    12  H   -0.180776  -0.112305   0.018573  -0.009275  -0.022371   0.643883
    13  O    0.041434  -0.012932  -0.000605  -0.001167  -0.000585  -0.012914
    14  C   -0.001088  -0.001027  -0.000096   0.000427  -0.000110  -0.001185
    15  H    0.004072  -0.001460  -0.000506   0.000174  -0.000507  -0.001466
    16  H   -0.003274   0.001028   0.000359  -0.000010   0.000360   0.001031
    17  H   -0.069146   0.009558   0.010499   0.020736   0.010701   0.010136
    18  Cl   0.019664   0.010411  -0.003155  -0.022130  -0.003308   0.010196
               7          8          9         10         11         12
     1  C    0.555474  -0.180963   0.023007   0.028546   0.023056  -0.180776
     2  C   -0.271266   0.644445  -0.070337  -0.019030   0.079330  -0.112305
     3  C   -0.048397  -0.022246   0.424608  -0.060866  -0.008620   0.018573
     4  C    0.019534  -0.009249  -0.113832   0.489993  -0.113877  -0.009275
     5  C   -0.048637   0.018619  -0.008648  -0.060945   0.424749  -0.022371
     6  C   -0.271929  -0.112863   0.079231  -0.018817  -0.070608   0.643883
     7  F    9.302764  -0.030816  -0.000323   0.001215  -0.000321  -0.030751
     8  H   -0.030816   0.499270  -0.012754   0.000105   0.002970  -0.001005
     9  H   -0.000323  -0.012754   0.484070  -0.012497   0.000589   0.002970
    10  H    0.001215   0.000105  -0.012497   0.488000  -0.012504   0.000111
    11  H   -0.000321   0.002970   0.000589  -0.012504   0.484075  -0.012757
    12  H   -0.030751  -0.001005   0.002970   0.000111  -0.012757   0.499267
    13  O    0.006718   0.000281   0.000100  -0.000006   0.000100   0.000283
    14  C    0.002432  -0.000199  -0.000018   0.000008  -0.000018  -0.000195
    15  H   -0.000784  -0.000112  -0.000015   0.000003  -0.000015  -0.000114
    16  H   -0.000379   0.000068  -0.000001  -0.000003  -0.000001   0.000071
    17  H    0.027670  -0.000824  -0.000668  -0.000265  -0.000662  -0.000890
    18  Cl  -0.009324   0.002695   0.000855   0.000308   0.000850   0.002751
              13         14         15         16         17         18
     1  C    0.041434  -0.001088   0.004072  -0.003274  -0.069146   0.019664
     2  C   -0.012932  -0.001027  -0.001460   0.001028   0.009558   0.010411
     3  C   -0.000605  -0.000096  -0.000506   0.000359   0.010499  -0.003155
     4  C   -0.001167   0.000427   0.000174  -0.000010   0.020736  -0.022130
     5  C   -0.000585  -0.000110  -0.000507   0.000360   0.010701  -0.003308
     6  C   -0.012914  -0.001185  -0.001466   0.001031   0.010136   0.010196
     7  F    0.006718   0.002432  -0.000784  -0.000379   0.027670  -0.009324
     8  H    0.000281  -0.000199  -0.000112   0.000068  -0.000824   0.002695
     9  H    0.000100  -0.000018  -0.000015  -0.000001  -0.000668   0.000855
    10  H   -0.000006   0.000008   0.000003  -0.000003  -0.000265   0.000308
    11  H    0.000100  -0.000018  -0.000015  -0.000001  -0.000662   0.000850
    12  H    0.000283  -0.000195  -0.000114   0.000071  -0.000890   0.002751
    13  O    8.190140   0.282443  -0.087685  -0.091074   0.008081  -0.006376
    14  C    0.282443   4.816842   0.405077   0.409515   0.000632  -0.002998
    15  H   -0.087685   0.405077   0.698503  -0.138573   0.000114   0.003172
    16  H   -0.091074   0.409515  -0.138573   0.701918   0.001177  -0.000794
    17  H    0.008081   0.000632   0.000114   0.001177   0.755256   0.123230
    18  Cl  -0.006376  -0.002998   0.003172  -0.000794   0.123230  16.966126
 Mulliken charges:
               1
     1  C   -0.358999
     2  C    0.053785
     3  C   -0.146141
     4  C   -0.258690
     5  C   -0.146049
     6  C    0.055378
     7  F   -0.202878
     8  H    0.202577
     9  H    0.203663
    10  H    0.176644
    11  H    0.203664
    12  H    0.202530
    13  O   -0.316237
    14  C    0.089557
    15  H    0.120122
    16  H    0.118582
    17  H    0.094666
    18  Cl  -0.092174
 Sum of Mulliken charges =  -0.00000
 Mulliken charges with hydrogens summed into heavy atoms:
               1
     1  C   -0.358999
     2  C    0.256362
     3  C    0.057523
     4  C   -0.082045
     5  C    0.057615
     6  C    0.257908
     7  F   -0.202878
    13  O   -0.316237
    14  C    0.328261
    18  Cl   0.002491
 Electronic spatial extent (au):  <R**2>=           2634.7776
 Charge=             -0.0000 electrons
 Dipole moment (field-independent basis, Debye):
    X=              0.5267    Y=             -1.3000    Z=              0.0056  Tot=              1.4026
 Quadrupole moment (field-independent basis, Debye-Ang):
   XX=            -35.3255   YY=            -69.0891   ZZ=            -58.9527
   XY=             -5.6293   XZ=              0.0181   YZ=             -0.0199
 Traceless Quadrupole moment (field-independent basis, Debye-Ang):
   XX=             19.1303   YY=            -14.6334   ZZ=             -4.4969
   XY=             -5.6293   XZ=              0.0181   YZ=             -0.0199
 Octapole moment (field-independent basis, Debye-Ang**2):
  XXX=            131.1292  YYY=             -4.3969  ZZZ=             -0.0200  XYY=             21.2958
  XXY=            -32.9681  XXZ=              0.0583  XZZ=             -1.3092  YZZ=             -3.6715
  YYZ=              0.0144  XYZ=              0.0023
 Hexadecapole moment (field-independent basis, Debye-Ang**3):
 XXXX=          -1633.7314 YYYY=           -645.5133 ZZZZ=           -253.9055 XXXY=           -201.2319
 XXXZ=              0.2145 YYYX=            -44.8676 YYYZ=              0.0569 ZZZX=             -0.0183
 ZZZY=             -0.0473 XXYY=           -497.1889 XXZZ=           -430.6378 YYZZ=           -162.8314
 XXYZ=             -0.1267 YYXZ=              0.0109 ZZXY=             -3.6968
 N-N= 5.565025655466D+02 E-N=-3.256256372492D+03  KE= 9.078039962907D+02
 D1PCM: PCM CHGder 1st derivatives, ID1Alg=3 FixD1E=F DoIter=F DoCFld=F I1PDM=0.
 Calling FoFJK, ICntrl=      2127 FMM=F ISym2X=0 I1Cent= 0 IOpClX= 0 NMat=1 NMatS=1 NMatT=0.
 ***** Axes restored to original set *****
 -------------------------------------------------------------------
 Center     Atomic                   Forces (Hartrees/Bohr)
 Number     Number              X              Y              Z
 -------------------------------------------------------------------
      1        6          -0.091358877   -0.000591880   -0.052747975
      2        6          -0.053017966    0.000076554    0.015301352
      3        6           0.002524694    0.000149405    0.037298526
      4        6           0.039445109   -0.000075720    0.022776501
      5        6           0.033565851    0.000149240   -0.016460920
      6        6          -0.013257350    0.000076286   -0.053565175
      7        9           0.025610838    0.000653874    0.014785428
      8        1          -0.065625929   -0.000011742    0.035786133
      9        1          -0.001622987    0.000025173    0.073865290
     10        1           0.064327892    0.000004559    0.037138982
     11        1           0.063157232    0.000025751   -0.038338495
     12        1          -0.001821868   -0.000010783   -0.074726860
     13        8           0.014305425    0.000586269    0.008251925
     14        6           0.062742271    0.000126102    0.036559445
     15        1          -0.039284459    0.071712365   -0.022844904
     16        1          -0.039254010   -0.071699156   -0.022827646
     17        1          -0.116592146   -0.759541754   -0.067329821
     18       17           0.116156282    0.758345457    0.067078215
 -------------------------------------------------------------------
 Cartesian Forces:  Max     0.759541754 RMS     0.152670113
 -----------------------------------------------------------------------------------------------
                       Internal Coordinate Forces (Hartree/Bohr or radian)
  Cent   Atom   N1       Length/X         N2         Alpha/Y        N3         Beta/Z          J
 -----------------------------------------------------------------------------------------------
      1  C 
      2  C        1   0.037862(     1)
      3  C        2   0.154137(     2)      1   0.164544(    18)
      4  C        3   0.222164(     3)      2   0.417239(    19)      1   0.000934(    34)     0
      5  C        4   0.184305(     4)      3   0.451922(    20)      2   0.000687(    35)     0
      6  C        5   0.078419(     5)      4   0.253075(    21)      3   0.000174(    36)     0
      7  F        1  -0.027347(     6)      2  -0.000005(    22)      3   0.001914(    37)     0
      8  H        2   0.074727(     7)      3   0.003442(    23)      4  -0.000019(    38)     0
      9  H        3   0.073865(     8)      4   0.003067(    24)      5   0.000041(    39)     0
     10  H        4   0.074279(     9)      5  -0.000001(    25)      6   0.000007(    40)     0
     11  H        5   0.073865(    10)      6  -0.003068(    26)      1   0.000042(    41)     0
     12  H        6   0.074727(    11)      1  -0.003443(    27)      2  -0.000018(    42)     0
     13  O        7   0.001722(    12)      1   0.000013(    28)      3  -0.000007(    43)     0
     14  C       13   0.018236(    13)      1   0.000104(    29)      2  -0.000001(    44)     0
     15  H       14   0.084827(    14)      1   0.006613(    30)      2   0.000117(    45)     0
     16  H       14   0.084798(    15)      1   0.006568(    31)      2  -0.000118(    46)     0
     17  H        7  -0.001091(    16)      1   0.002359(    32)      2  -0.000022(    47)     0
     18  Cl      17   0.770117(    17)      7  -0.000698(    33)      1  -0.000008(    48)     0
 -----------------------------------------------------------------------------------------------
 Internal  Forces:  Max     0.770116505 RMS     0.159452056

 GradGradGradGradGradGradGradGradGradGradGradGradGradGradGradGradGradGrad
 Berny optimization.
 Search for a local minimum.
 Step number   1 out of a maximum of   50
 All quantities printed in internal units (Hartrees-Bohrs-Radians)
 Second derivative matrix not updated -- first step.
 The second derivative matrix:
                          d1        d2        d3        d4        d5
           d1           0.95300
           d2          -0.05489   0.95300
           d3          -0.33597   0.33597   1.34386
           d4          -0.28107   0.05489   0.33597   0.95300
           d5           0.05489  -0.28107  -0.33597  -0.05489   0.95300
           d6           0.00000   0.00000  -0.00000  -0.00000  -0.00000
           d7          -0.00000  -0.00000  -0.00000   0.00000   0.00000
           d8           0.00000   0.00000   0.00000  -0.00000  -0.00000
           d9          -0.00000  -0.00000  -0.00000   0.00000   0.00000
           d10          0.00000  -0.00000  -0.00000   0.00000  -0.00000
           d11         -0.00000  -0.00000   0.00000  -0.00000   0.00000
           d12          0.00000   0.00000  -0.00000  -0.00000  -0.00000
           d13          0.00000   0.00000  -0.00000  -0.00000  -0.00000
           d14          0.00000   0.00000  -0.00000  -0.00000  -0.00000
           d15         -0.00000  -0.00000  -0.00000   0.00000   0.00000
           d16         -0.00000  -0.00000  -0.00000   0.00000   0.00000
           d17         -0.00000  -0.00000   0.00000   0.00000   0.00000
                          d6        d7        d8        d9        d10
           d6           0.45621
           d7           0.00000   0.47688
           d8          -0.00000   0.00000   0.47688
           d9           0.00000  -0.00000   0.00000   0.47688
           d10          0.00000  -0.00000   0.00000  -0.00000   0.47688
           d11         -0.00000   0.00000  -0.00000   0.00000  -0.00000
           d12         -0.00000   0.00000  -0.00000   0.00000   0.00000
           d13         -0.00000   0.00000  -0.00000   0.00000   0.00000
           d14          0.00000  -0.00000  -0.00000   0.00000   0.00000
           d15          0.00000   0.00000   0.00000  -0.00000  -0.00000
           d16         -0.00000  -0.00000   0.00000  -0.00000  -0.00000
           d17          0.00000  -0.00000   0.00000  -0.00000  -0.00000
                          d11       d12       d13       d14       d15
           d11          0.47688
           d12          0.00000   0.02330
           d13          0.00000  -0.00000   1.04823
           d14          0.00000   0.00000   0.00000   0.47688
           d15         -0.00000   0.00000  -0.00000   0.00000   0.47688
           d16         -0.00000   0.00000  -0.00000   0.00000  -0.00000
           d17         -0.00000   0.00000   0.00000   0.00000  -0.00000
                          d16       d17
           d16          0.02721
           d17          0.00000   1.53817
 ITU=  0
     Eigenvalues ---    0.02330   0.02721   0.45621   0.47688   0.47688
     Eigenvalues ---    0.47688   0.47688   0.47688   0.47688   0.47688
     Eigenvalues ---    0.67193   0.67193   0.67193   1.04823   1.12429
     Eigenvalues ---    1.53817   2.01579
 RFO step:  Lambda=-4.25844659D-01 EMin= 2.33007068D-02
 Linear search not attempted -- first point.
 Maximum step size (   0.300) exceeded in Quadratic search.
    -- Step size scaled by   0.584
 Variable       Old X    -DE/DX   Delta X   Delta X   Delta X     New X
                                 (Linear)    (Quad)   (Total)
    d1        2.45664   0.03786   0.00000   0.04725   0.04725   2.50389
    d2        2.45664   0.15414   0.00000   0.06031   0.06031   2.51695
    d3        2.45664   0.22216   0.00000   0.06935   0.06935   2.52599
    d4        2.45664   0.18431   0.00000   0.07086   0.07086   2.52750
    d5        2.45664   0.07842   0.00000   0.06332   0.06332   2.51996
    d6        2.64562  -0.02735   0.00000  -0.01809  -0.01809   2.62752
    d7        1.88973   0.07473   0.00000   0.04831   0.04831   1.93803
    d8        1.88973   0.07387   0.00000   0.04775   0.04775   1.93748
    d9        1.88973   0.07428   0.00000   0.04802   0.04802   1.93774
   d10        1.88973   0.07387   0.00000   0.04775   0.04775   1.93748
   d11        1.88973   0.07473   0.00000   0.04831   0.04831   1.93803
   d12        5.29123   0.00172   0.00000   0.00224   0.00224   5.29347
   d13        2.26767   0.01824   0.00000   0.00722   0.00722   2.27489
   d14        1.88973   0.08483   0.00000   0.05484   0.05484   1.94456
   d15        1.88973   0.08480   0.00000   0.05482   0.05482   1.94454
   d16        4.34637  -0.00109   0.00000  -0.00140  -0.00140   4.34497
   d17        1.70075   0.77012   0.00000   0.22882   0.22882   1.92958
         Item               Value     Threshold  Converged?
 Maximum Force            0.770117     0.000450     NO 
 RMS     Force            0.210156     0.000300     NO 
 Maximum Displacement     0.228824     0.001800     NO 
 RMS     Displacement     0.072761     0.001200     NO 
 Predicted change in Energy=-1.951612D-01
 GradGradGradGradGradGradGradGradGradGradGradGradGradGradGradGradGradGrad

 ---------------------------------------------------------------------------------------------------
                            Z-MATRIX (ANGSTROMS AND DEGREES)
   CD    Cent   Atom    N1       Length/X        N2       Alpha/Y        N3        Beta/Z          J
 ---------------------------------------------------------------------------------------------------
      1      1  C 
      2      2  C        1   1.325001(     1)
      3      3  C        2   1.331912(     2)      1  120.000(    18)
      4      4  C        3   1.336698(     3)      2  120.000(    19)      1    0.000(    34)      0
      5      5  C        4   1.337496(     4)      3  120.000(    20)      2    0.000(    35)      0
      6      6  C        5   1.333507(     5)      4  120.000(    21)      3    0.000(    36)      0
      7      7  F        1   1.390426(     6)      2  120.000(    22)      3  180.000(    37)      0
      8      8  H        2   1.025563(     7)      3  120.000(    23)      4  180.000(    38)      0
      9      9  H        3   1.025268(     8)      4  120.000(    24)      5  180.000(    39)      0
     10     10  H        4   1.025410(     9)      5  120.000(    25)      6  180.000(    40)      0
     11     11  H        5   1.025268(    10)      6  120.000(    26)      1  180.000(    41)      0
     12     12  H        6   1.025563(    11)      1  120.000(    27)      2  180.000(    42)      0
     13     13  O        7   2.801184(    12)      1  179.900(    28)      3  180.000(    43)      0
     14     14  C       13   1.203820(    13)      1  179.900(    29)      2  180.000(    44)      0
     15     15  H       14   1.029018(    14)      1  120.000(    30)      2   90.000(    45)      0
     16     16  H       14   1.029008(    15)      1  120.000(    31)      2  -90.000(    46)      0
     17     17  H        7   2.299257(    16)      1  100.000(    32)      2   90.000(    47)      0
     18     18  Cl      17   1.021089(    17)      7  160.000(    33)      1    0.000(    48)      0
 ---------------------------------------------------------------------------------------------------
                         Z-Matrix orientation:                         
 ---------------------------------------------------------------------
 Center     Atomic      Atomic             Coordinates (Angstroms)
 Number     Number       Type             X           Y           Z
 ---------------------------------------------------------------------
      1          6           0        0.000000    0.000000    0.000000
      2          6           0        0.000000    0.000000    1.325001
      3          6           0        1.153470    0.000000    1.990957
      4          6           0        2.311084    0.000000    1.322608
      5          6           0        2.311084    0.000000   -0.014887
      6          6           0        1.156233    0.000000   -0.681641
      7          9           0       -1.204144   -0.000000   -0.695213
      8          1           0       -0.888164   -0.000000    1.837783
      9          1           0        1.153470   -0.000000    3.016225
     10          1           0        3.199115   -0.000000    1.835313
     11          1           0        3.198992   -0.000000   -0.527522
     12          1           0        1.146910   -0.000000   -1.707162
     13          8           0       -3.627592   -0.000000   -2.100036
     14          6           0       -4.668374   -0.000000   -2.704980
     15          1           0       -5.113551    0.891156   -2.962927
     16          1           0       -5.113547   -0.891147   -2.962925
     17          1           0       -1.549915    2.264326   -0.894844
     18         17           0       -1.396359    3.269902   -0.806189
 ---------------------------------------------------------------------
                    Distance matrix (angstroms):
                    1          2          3          4          5
     1  C    0.000000
     2  C    1.325001   0.000000
     3  C    2.300957   1.331912   0.000000
     4  C    2.662781   2.311085   1.336698   0.000000
     5  C    2.311132   2.671406   2.315920   1.337496   0.000000
     6  C    1.342203   2.315920   2.672600   2.313157   1.333507
     7  F    1.390426   2.351856   3.574052   4.053200   3.580457
     8  H    2.041147   1.025563   2.047371   3.240461   3.696968
     9  H    3.229258   2.047128   1.025268   2.051441   3.244644
    10  H    3.688185   3.239561   2.051558   1.025410   2.052277
    11  H    3.242195   3.696673   3.244518   2.052160   1.025268
    12  H    2.056648   3.241822   3.698125   3.245737   2.054043
    13  O    4.191608   4.989018   6.292438   6.854369   6.294102
    14  C    5.395427   6.167208   7.479685   8.058182   7.479935
    15  H    5.976747   6.732673   8.038077   8.618885   8.038053
    16  H    5.976740   6.732667   8.038071   8.618879   8.038048
    17  H    2.886200   3.529464   4.556677   4.995155   4.561667
    18  Cl   3.645822   4.145364   5.001791   5.382302   5.006351
                    6          7          8          9         10
     6  C    0.000000
     7  F    2.360416   0.000000
     8  H    3.244542   2.552628   0.000000
     9  H    3.697868   4.396944   2.357328   0.000000
    10  H    3.241670   5.078607   4.087279   2.362037   0.000000
    11  H    2.048565   4.406328   4.722235   4.091736   2.362835
    12  H    1.025563   2.559588   4.087561   4.723392   4.093980
    13  O    4.989672   2.801184   4.796966   7.002477   7.879778
    14  C    6.166032   4.005004   5.909880   8.162478   9.083592
    15  H    6.731168   4.606534   6.457157   8.707466   9.639382
    16  H    6.731162   4.606527   6.457151   8.707461   9.639376
    17  H    3.534949   2.299257   3.610032   5.266110   5.927412
    18  Cl   4.150120   3.277426   4.235694   5.639569   6.228015
                   11         12         13         14         15
    11  H    0.000000
    12  H    2.366980   0.000000
    13  O    7.005359   4.790638   0.000000
    14  C    8.163135   5.900268   1.203820   0.000000
    15  H    8.707683   6.447052   1.935669   1.029018   0.000000
    16  H    8.707677   6.447046   1.935660   1.029008   1.782303
    17  H    5.273918   3.613847   3.300970   4.257764   4.343048
    18  Cl   5.646873   4.239366   4.164696   5.000374   4.911972
                   16         17         18
    16  H    0.000000
    17  H    5.189744   0.000000
    18  Cl   5.981916   1.021089   0.000000
 Stoichiometry    C7H8ClFO
 Framework group  C1[X(C7H8ClFO)]
 Deg. of freedom    48
 Full point group                 C1      NOp   1
 Largest Abelian subgroup         C1      NOp   1
 Largest concise Abelian subgroup C1      NOp   1
                         Standard orientation:                         
 ---------------------------------------------------------------------
 Center     Atomic      Atomic             Coordinates (Angstroms)
 Number     Number       Type             X           Y           Z
 ---------------------------------------------------------------------
      1          6           0       -0.829005   -0.585222   -0.007955
      2          6           0       -1.484871   -0.495138   -1.155714
      3          6           0       -2.805323   -0.320793   -1.156278
      4          6           0       -3.468863   -0.236700    0.001048
      5          6           0       -2.806813   -0.327634    1.159631
      6          6           0       -1.484779   -0.502188    1.160195
      7          9           0        0.549457   -0.767227   -0.007366
      8          1           0       -0.975778   -0.559656   -2.043657
      9          1           0       -3.312823   -0.251087   -2.044400
     10          1           0       -4.485450   -0.102476    0.000614
     11          1           0       -3.315759   -0.263134    2.047318
     12          1           0       -0.969145   -0.572955    2.043877
     13          8           0        3.326530   -1.133911   -0.001291
     14          6           0        4.519985   -1.291499    0.002724
     15          1           0        5.146715   -0.475366    0.006427
     16          1           0        4.913412   -2.242325    0.001057
     17          1           0        1.241676    1.425344   -0.000375
     18         17           0        1.197518    2.445473    0.002580
 ---------------------------------------------------------------------
 Rotational constants (GHZ):           1.3913965           0.4809504           0.4037959
 Standard basis: 6-311++G(d,p) (5D, 7F)
 There are   294 symmetry adapted cartesian basis functions of A   symmetry.
 There are   284 symmetry adapted basis functions of A   symmetry.
   284 basis functions,   449 primitive gaussians,   294 cartesian basis functions
    42 alpha electrons       42 beta electrons
       nuclear repulsion energy       545.5446539980 Hartrees.
 NAtoms=   18 NActive=   18 NUniq=   18 SFac= 1.00D+00 NAtFMM=   60 NAOKFM=F Big=F
 Integral buffers will be    131072 words long.
 Raffenetti 2 integral format.
 Two-electron integral symmetry is turned on.
 ------------------------------------------------------------------------------
 Polarizable Continuum Model (PCM)
 =================================
 Model                : PCM.
 Atomic radii         : UFF (Universal Force Field).
 Polarization charges : Total charges.
 Charge compensation  : None.
 Solution method      : On-the-fly selection.
 Cavity type          : Scaled VdW (van der Waals Surface) (Alpha=1.100).
 Cavity algorithm     : GePol (No added spheres)
                        Default sphere list used, NSphG=   18.
                        Lebedev-Laikov grids with approx.  5.0 points / Ang**2.
                        Smoothing algorithm: York/Karplus (Gamma=1.0000).
                        Polarization charges: spherical gaussians, with
                                              point-specific exponents (IZeta= 3).
                        Self-potential: point-specific (ISelfS= 7).
                        Self-field    : sphere-specific E.n sum rule (ISelfD= 2).
 1st derivatives      : Analytical E(r).r(x)/FMM algorithm (CHGder, D1EAlg=3).
                        Cavity 1st derivative terms included.
 Solvent              : Chloroform, Eps=   4.711300 Eps(inf)=   2.090627
 ------------------------------------------------------------------------------
 Spheres list:
 ISph  on   Nord     Re0    Alpha      Xe            Ye            Ze
    1   C      1    1.9255  1.100     -0.829005     -0.585222     -0.007955
    2   C      2    1.9255  1.100     -1.484871     -0.495138     -1.155714
    3   C      3    1.9255  1.100     -2.805323     -0.320793     -1.156278
    4   C      4    1.9255  1.100     -3.468863     -0.236700      0.001048
    5   C      5    1.9255  1.100     -2.806813     -0.327634      1.159631
    6   C      6    1.9255  1.100     -1.484779     -0.502188      1.160195
    7   F      7    1.6820  1.100      0.549457     -0.767227     -0.007366
    8   H      8    1.4430  1.100     -0.975778     -0.559656     -2.043657
    9   H      9    1.4430  1.100     -3.312823     -0.251087     -2.044400
   10   H     10    1.4430  1.100     -4.485450     -0.102476      0.000614
   11   H     11    1.4430  1.100     -3.315759     -0.263134      2.047318
   12   H     12    1.4430  1.100     -0.969145     -0.572955      2.043877
   13   O     13    1.7500  1.100      3.326530     -1.133911     -0.001291
   14   C     14    1.9255  1.100      4.519985     -1.291499      0.002724
   15   H     15    1.4430  1.100      5.146715     -0.475366      0.006427
   16   H     16    1.4430  1.100      4.913412     -2.242325      0.001057
   17   H     17    1.4430  1.100      1.241676      1.425344     -0.000375
   18  Cl     18    1.9735  1.100      1.197518      2.445473      0.002580
 ------------------------------------------------------------------------------
 One-electron integrals computed using PRISM.
 NBasis=   284 RedAO= T EigKep=  5.28D-06  NBF=   284
 NBsUse=   283 1.00D-06 EigRej=  7.13D-07 NBFU=   283
 Initial guess from the checkpoint file:  "model_H1.chk"
 B after Tr=    -0.000000    0.000000    0.000000
         Rot=    1.000000   -0.000388    0.000082    0.000803 Ang=  -0.10 deg.
 ExpMin= 3.60D-02 ExpMax= 1.06D+05 ExpMxC= 3.62D+03 IAcc=3 IRadAn=         5 AccDes= 0.00D+00
 Harris functional with IExCor= 1009 and IRadAn=       5 diagonalized for initial guess.
 HarFok:  IExCor= 1009 AccDes= 0.00D+00 IRadAn=         5 IDoV= 1 UseB2=F ITyADJ=14
 ICtDFT=  3500011 ScaDFX=  1.000000  1.000000  1.000000  1.000000
 FoFCou: FMM=F IPFlag=           0 FMFlag=      100000 FMFlg1=           0
         NFxFlg=           0 DoJE=T BraDBF=F KetDBF=T FulRan=T
         wScrn=  0.000000 ICntrl=       500 IOpCl=  0 I1Cent=   200000004 NGrid=           0
         NMat0=    1 NMatS0=      1 NMatT0=    0 NMatD0=    1 NMtDS0=    0 NMtDT0=    0
 Petite list used in FoFCou.
 Requested convergence on RMS density matrix=1.00D-08 within 128 cycles.
 Requested convergence on MAX density matrix=1.00D-06.
 Requested convergence on             energy=1.00D-06.
 No special actions if energy rises.
 Inv3:  Mode=1 IEnd=    10189947.
 Iteration    1 A*A^-1 deviation from unit magnitude is 6.00D-15 for   1821.
 Iteration    1 A*A^-1 deviation from orthogonality  is 2.37D-15 for   1816   1591.
 Iteration    1 A^-1*A deviation from unit magnitude is 6.22D-15 for   1821.
 Iteration    1 A^-1*A deviation from orthogonality  is 2.00D-15 for   1830   1774.
 Error on total polarization charges =  0.01137
 SCF Done:  E(RM062X) =  -906.627824416     A.U. after   13 cycles
            NFock= 13  Conv=0.42D-08     -V/T= 2.0003
 D1PCM: PCM CHGder 1st derivatives, ID1Alg=3 FixD1E=F DoIter=F DoCFld=F I1PDM=0.
 Calling FoFJK, ICntrl=      2127 FMM=F ISym2X=0 I1Cent= 0 IOpClX= 0 NMat=1 NMatS=1 NMatT=0.
 ***** Axes restored to original set *****
 -------------------------------------------------------------------
 Center     Atomic                   Forces (Hartrees/Bohr)
 Number     Number              X              Y              Z
 -------------------------------------------------------------------
      1        6          -0.044859258   -0.000648047   -0.044356910
      2        6          -0.032832659    0.000114735    0.012295878
      3        6           0.009197199    0.000120835    0.013920764
      4        6           0.015494088   -0.000049729    0.009935264
      5        6           0.012913012    0.000121958   -0.002761093
      6        6          -0.017068967    0.000112525   -0.022666795
      7        9           0.022815684    0.001091207    0.013519592
      8        1          -0.042685956   -0.000020601    0.022558492
      9        1          -0.001276540    0.000028122    0.047643574
     10        1           0.041447889    0.000008676    0.023901852
     11        1           0.040662307    0.000030037   -0.024993668
     12        1          -0.001984619   -0.000016963   -0.047942370
     13        8           0.005483674    0.000644677    0.003128469
     14        6           0.046796824    0.000140788    0.027326080
     15        1          -0.026862585    0.046046066   -0.015641613
     16        1          -0.026820110   -0.046046192   -0.015620328
     17        1          -0.053982475   -0.350232794   -0.031160931
     18       17           0.053562492    0.348554702    0.030913742
 -------------------------------------------------------------------
 Cartesian Forces:  Max     0.350232794 RMS     0.072007342
 -----------------------------------------------------------------------------------------------
                       Internal Coordinate Forces (Hartree/Bohr or radian)
  Cent   Atom   N1       Length/X         N2         Alpha/Y        N3         Beta/Z          J
 -----------------------------------------------------------------------------------------------
      1  C 
      2  C        1   0.030873(     1)
      3  C        2   0.083558(     2)      1   0.059047(    18)
      4  C        3   0.111463(     3)      2   0.188542(    19)      1   0.001081(    34)     0
      5  C        4   0.099383(     4)      3   0.214696(    20)      2   0.000789(    35)     0
      6  C        5   0.052836(     5)      4   0.129009(    21)      3   0.000244(    36)     0
      7  F        1  -0.024413(     6)      2  -0.000807(    22)      3   0.001992(    37)     0
      8  H        2   0.048246(     7)      3   0.003502(    23)      4  -0.000035(    38)     0
      9  H        3   0.047644(     8)      4   0.002473(    24)      5   0.000047(    39)     0
     10  H        4   0.047846(     9)      5  -0.000047(    25)      6   0.000015(    40)     0
     11  H        5   0.047711(    10)      6  -0.002546(    26)      1   0.000050(    41)     0
     12  H        6   0.047958(    11)      1  -0.003001(    27)      2  -0.000028(    42)     0
     13  O        7   0.001618(    12)      1   0.000024(    28)      3  -0.000008(    43)     0
     14  C       13   0.007931(    13)      1   0.000101(    29)      2  -0.000001(    44)     0
     15  H       14   0.055419(    14)      1   0.007578(    30)      2   0.000112(    45)     0
     16  H       14   0.055396(    15)      1   0.007498(    31)      2  -0.000117(    46)     0
     17  H        7  -0.001568(    16)      1   0.002622(    32)      2   0.000035(    47)     0
     18  Cl      17   0.353998(    17)      7  -0.000729(    33)      1   0.000006(    48)     0
 -----------------------------------------------------------------------------------------------
 Internal  Forces:  Max     0.353998358 RMS     0.076177320

 GradGradGradGradGradGradGradGradGradGradGradGradGradGradGradGradGradGrad
 Berny optimization.
 Search for a local minimum.
 Step number   2 out of a maximum of   50
 All quantities printed in internal units (Hartrees-Bohrs-Radians)
 Update second derivatives using D2CorN and points    1    2
 DE= -1.81D-01 DEPred=-1.95D-01 R= 9.26D-01
 TightC=F SS=  1.41D+00  RLast= 3.00D-01 DXNew= 5.0454D-01 9.0000D-01
 Trust test= 9.26D-01 RLast= 3.00D-01 DXMaxT set to 5.05D-01
 The second derivative matrix:
                          d1        d2        d3        d4        d5
           d1           0.95563
           d2          -0.05156   0.95723
           d3          -0.33126   0.34194   1.35202
           d4          -0.27712   0.05990   0.34304   0.95894
           d5           0.05844  -0.27658  -0.32963  -0.04957   0.95778
           d6           0.00089   0.00115   0.00099   0.00134   0.00119
           d7           0.00225   0.00285   0.00417   0.00338   0.00303
           d8           0.00224   0.00283   0.00414   0.00336   0.00301
           d9           0.00227   0.00287   0.00419   0.00340   0.00305
           d10          0.00222   0.00281   0.00411   0.00333   0.00299
           d11          0.00232   0.00294   0.00428   0.00349   0.00313
           d12          0.00008   0.00010   0.00015   0.00011   0.00010
           d13          0.00092   0.00117   0.00148   0.00138   0.00124
           d14          0.00238   0.00301   0.00448   0.00358   0.00321
           d15          0.00238   0.00301   0.00448   0.00358   0.00321
           d16          0.00010   0.00012   0.00012   0.00014   0.00013
           d17          0.02321   0.02951   0.03817   0.03484   0.03119
                          d6        d7        d8        d9        d10
           d6           0.45514
           d7           0.00108   0.47873
           d8           0.00106   0.00184   0.47871
           d9           0.00106   0.00187   0.00186   0.47877
           d10          0.00107   0.00182   0.00181   0.00184   0.47868
           d11          0.00105   0.00193   0.00192   0.00194   0.00190
           d12          0.00006   0.00006   0.00006   0.00006   0.00006
           d13         -0.00006   0.00087   0.00086   0.00087   0.00086
           d14          0.00129   0.00192   0.00192   0.00195   0.00189
           d15          0.00129   0.00192   0.00192   0.00195   0.00190
           d16         -0.00009   0.00011   0.00011   0.00011   0.00011
           d17          0.00032   0.02159   0.02140   0.02161   0.02132
                          d11       d12       d13       d14       d15
           d11          0.47889
           d12          0.00006   0.02330
           d13          0.00088   0.00004   1.04845
           d14          0.00201   0.00006   0.00096   0.47887
           d15          0.00201   0.00006   0.00096   0.00199   0.47887
           d16          0.00011   0.00001  -0.00000   0.00013   0.00013
           d17          0.02196   0.00086   0.00605   0.02368   0.02368
                          d16       d17
           d16          0.02720
           d17          0.00015   1.70127
 ITU=  1  0
 Linear search step of   0.600 exceeds DXMaxT=   0.505 but not scaled.
 Quartic linear search produced a step of  2.00000.
 Variable       Old X    -DE/DX   Delta X   Delta X   Delta X     New X
                                 (Linear)    (Quad)   (Total)
    d1        2.50389   0.03087   0.09449   0.00000   0.09449   2.59838
    d2        2.51695   0.08356   0.12061   0.00000   0.12061   2.63756
    d3        2.52599   0.11146   0.13870   0.00000   0.13870   2.66469
    d4        2.52750   0.09938   0.14171   0.00000   0.14171   2.66921
    d5        2.51996   0.05284   0.12664   0.00000   0.12664   2.64660
    d6        2.62752  -0.02441  -0.03619   0.00000  -0.03619   2.59134
    d7        1.93803   0.04825   0.09661   0.00000   0.09661   2.03465
    d8        1.93748   0.04764   0.09550   0.00000   0.09550   2.03298
    d9        1.93774   0.04785   0.09604   0.00000   0.09604   2.03378
   d10        1.93748   0.04771   0.09550   0.00000   0.09550   2.03298
   d11        1.93803   0.04796   0.09661   0.00000   0.09661   2.03465
   d12        5.29347   0.00162   0.00447   0.00000   0.00447   5.29794
   d13        2.27489   0.00793   0.01444   0.00000   0.01444   2.28933
   d14        1.94456   0.05542   0.10967   0.00000   0.10967   2.05423
   d15        1.94454   0.05540   0.10963   0.00000   0.10963   2.05418
   d16        4.34497  -0.00157  -0.00281   0.00000  -0.00281   4.34216
   d17        1.92958   0.35400   0.45765   0.00000   0.45765   2.38723
         Item               Value     Threshold  Converged?
 Maximum Force            0.353998     0.000450     NO 
 RMS     Force            0.101925     0.000300     NO 
 Maximum Displacement     0.457648     0.001800     NO 
 RMS     Displacement     0.145521     0.001200     NO 
 Predicted change in Energy=-2.231432D-03
 GradGradGradGradGradGradGradGradGradGradGradGradGradGradGradGradGradGrad

 ---------------------------------------------------------------------------------------------------
                            Z-MATRIX (ANGSTROMS AND DEGREES)
   CD    Cent   Atom    N1       Length/X        N2       Alpha/Y        N3        Beta/Z          J
 ---------------------------------------------------------------------------------------------------
      1      1  C 
      2      2  C        1   1.375003(     1)
      3      3  C        2   1.395736(     2)      1  120.000(    18)
      4      4  C        3   1.410094(     3)      2  120.000(    19)      1    0.000(    34)      0
      5      5  C        4   1.412487(     4)      3  120.000(    20)      2    0.000(    35)      0
      6      6  C        5   1.400521(     5)      4  120.000(    21)      3    0.000(    36)      0
      7      7  F        1   1.371277(     6)      2  120.000(    22)      3  180.000(    37)      0
      8      8  H        2   1.076689(     7)      3  120.000(    23)      4  180.000(    38)      0
      9      9  H        3   1.075805(     8)      4  120.000(    24)      5  180.000(    39)      0
     10     10  H        4   1.076230(     9)      5  120.000(    25)      6  180.000(    40)      0
     11     11  H        5   1.075805(    10)      6  120.000(    26)      1  180.000(    41)      0
     12     12  H        6   1.076689(    11)      1  120.000(    27)      2  180.000(    42)      0
     13     13  O        7   2.803551(    12)      1  179.900(    28)      3  180.000(    43)      0
     14     14  C       13   1.211461(    13)      1  179.900(    29)      2  180.000(    44)      0
     15     15  H       14   1.087054(    14)      1  120.000(    30)      2   90.000(    45)      0
     16     16  H       14   1.087024(    15)      1  120.000(    31)      2  -90.000(    46)      0
     17     17  H        7   2.297770(    16)      1  100.000(    32)      2   90.000(    47)      0
     18     18  Cl      17   1.263266(    17)      7  160.000(    33)      1    0.000(    48)      0
 ---------------------------------------------------------------------------------------------------
                         Z-Matrix orientation:                         
 ---------------------------------------------------------------------
 Center     Atomic      Atomic             Coordinates (Angstroms)
 Number     Number       Type             X           Y           Z
 ---------------------------------------------------------------------
      1          6           0        0.000000    0.000000    0.000000
      2          6           0        0.000000    0.000000    1.375003
      3          6           0        1.208743    0.000000    2.072871
      4          6           0        2.429920    0.000000    1.367825
      5          6           0        2.429920    0.000000   -0.044662
      6          6           0        1.217033    0.000000   -0.744923
      7          9           0       -1.187560   -0.000000   -0.685638
      8          1           0       -0.932440   -0.000000    1.913348
      9          1           0        1.208743   -0.000000    3.148676
     10          1           0        3.361962   -0.000000    1.905939
     11          1           0        3.361594   -0.000000   -0.582565
     12          1           0        1.189412   -0.000000   -1.821258
     13          8           0       -3.613057   -0.000000   -2.091649
     14          6           0       -4.660441   -0.000000   -2.700438
     15          1           0       -5.130724    0.941416   -2.972938
     16          1           0       -5.130711   -0.941391   -2.972930
     17          1           0       -1.533107    2.262861   -0.885140
     18         17           0       -1.343133    3.506935   -0.775458
 ---------------------------------------------------------------------
                    Distance matrix (angstroms):
                    1          2          3          4          5
     1  C    0.000000
     2  C    1.375003   0.000000
     3  C    2.399553   1.395736   0.000000
     4  C    2.788450   2.429931   1.410094   0.000000
     5  C    2.430331   2.814243   2.444427   1.412487   0.000000
     6  C    1.426913   2.444434   2.817807   2.436144   1.400521
     7  F    1.371277   2.378349   3.653990   4.159672   3.673828
     8  H    2.128461   1.076689   2.147117   3.406327   3.890922
     9  H    3.372717   2.146387   1.075805   2.159330   3.418872
    10  H    3.864634   3.403628   2.159680   1.076230   2.161839
    11  H    3.411700   3.890037   3.418495   2.161489   1.075805
    12  H    2.175243   3.410394   3.894177   3.421857   2.166830
    13  O    4.174826   5.007181   6.371262   6.963155   6.380260
    14  C    5.386286   6.191037   7.565171   8.174594   7.571418
    15  H    6.004078   6.790816   8.156917   8.768798   8.162377
    16  H    6.004059   6.790798   8.156899   8.768780   8.162359
    17  H    2.873053   3.546718   4.624729   5.089399   4.640316
    18  Cl   3.834571   4.327480   5.188800   5.579264   5.202748
                    6          7          8          9         10
     6  C    0.000000
     7  F    2.405324   0.000000
     8  H    3.418573   2.611478   0.000000
     9  H    3.893608   4.521530   2.471983   0.000000
    10  H    3.409955   5.235879   4.294409   2.486111   0.000000
    11  H    2.150698   4.550322   4.966720   4.307775   2.488504
    12  H    1.076689   2.634317   4.295292   4.969972   4.314160
    13  O    5.014323   2.803551   4.819306   7.121149   8.039378
    14  C    6.194251   4.015012   5.931696   8.286101   9.250820
    15  H    6.792962   4.654733   6.510579   8.862802   9.839483
    16  H    6.792944   4.654713   6.510561   8.862785   9.839465
    17  H    3.564193   2.297770   3.648682   5.376798   6.072263
    18  Cl   4.342117   3.511533   4.438124   5.848888   6.451853
                   11         12         13         14         15
    11  H    0.000000
    12  H    2.500547   0.000000
    13  O    7.136042   4.810074   0.000000
    14  C    8.296893   5.915550   1.211461   0.000000
    15  H    8.872407   6.492822   1.991544   1.087054   0.000000
    16  H    8.872390   6.492805   1.991519   1.087024   1.882807
    17  H    5.400944   3.661826   3.301877   4.265685   4.364397
    18  Cl   5.871138   4.450401   4.379898   5.196987   5.075101
                   16         17         18
    16  H    0.000000
    17  H    5.250605   0.000000
    18  Cl   6.241974   1.263266   0.000000
 Stoichiometry    C7H8ClFO
 Framework group  C1[X(C7H8ClFO)]
 Deg. of freedom    48
 Full point group                 C1      NOp   1
 Largest Abelian subgroup         C1      NOp   1
 Largest concise Abelian subgroup C1      NOp   1
                         Standard orientation:                         
 ---------------------------------------------------------------------
 Center     Atomic      Atomic             Coordinates (Angstroms)
 Number     Number       Type             X           Y           Z
 ---------------------------------------------------------------------
      1          6           0       -0.796050   -0.630726   -0.020946
      2          6           0       -1.471566   -0.527474   -1.214115
      3          6           0       -2.853375   -0.330852   -1.219006
      4          6           0       -3.556643   -0.238094   -0.000328
      5          6           0       -2.862712   -0.344161    1.225367
      6          6           0       -1.476166   -0.541457    1.230275
      7          9           0        0.561543   -0.823903   -0.016141
      8          1           0       -0.934580   -0.598300   -2.144646
      9          1           0       -3.381899   -0.250067   -2.152543
     10          1           0       -4.622133   -0.086482   -0.004099
     11          1           0       -3.399257   -0.273393    2.155134
     12          1           0       -0.923639   -0.625578    2.150545
     13          8           0        3.337093   -1.218875   -0.001424
     14          6           0        4.536446   -1.389556    0.006356
     15          1           0        5.207144   -0.534114    0.014692
     16          1           0        4.941934   -2.398116    0.003529
     17          1           0        1.275292    1.360150   -0.001327
     18         17           0        1.233347    2.622702    0.005280
 ---------------------------------------------------------------------
 Rotational constants (GHZ):           1.2200109           0.4669231           0.3840616
 Standard basis: 6-311++G(d,p) (5D, 7F)
 There are   294 symmetry adapted cartesian basis functions of A   symmetry.
 There are   284 symmetry adapted basis functions of A   symmetry.
   284 basis functions,   449 primitive gaussians,   294 cartesian basis functions
    42 alpha electrons       42 beta electrons
       nuclear repulsion energy       525.5714777126 Hartrees.
 NAtoms=   18 NActive=   18 NUniq=   18 SFac= 1.00D+00 NAtFMM=   60 NAOKFM=F Big=F
 Integral buffers will be    131072 words long.
 Raffenetti 2 integral format.
 Two-electron integral symmetry is turned on.
 ------------------------------------------------------------------------------
 Polarizable Continuum Model (PCM)
 =================================
 Model                : PCM.
 Atomic radii         : UFF (Universal Force Field).
 Polarization charges : Total charges.
 Charge compensation  : None.
 Solution method      : On-the-fly selection.
 Cavity type          : Scaled VdW (van der Waals Surface) (Alpha=1.100).
 Cavity algorithm     : GePol (No added spheres)
                        Default sphere list used, NSphG=   18.
                        Lebedev-Laikov grids with approx.  5.0 points / Ang**2.
                        Smoothing algorithm: York/Karplus (Gamma=1.0000).
                        Polarization charges: spherical gaussians, with
                                              point-specific exponents (IZeta= 3).
                        Self-potential: point-specific (ISelfS= 7).
                        Self-field    : sphere-specific E.n sum rule (ISelfD= 2).
 1st derivatives      : Analytical E(r).r(x)/FMM algorithm (CHGder, D1EAlg=3).
                        Cavity 1st derivative terms included.
 Solvent              : Chloroform, Eps=   4.711300 Eps(inf)=   2.090627
 ------------------------------------------------------------------------------
 Spheres list:
 ISph  on   Nord     Re0    Alpha      Xe            Ye            Ze
    1   C      1    1.9255  1.100     -0.796050     -0.630726     -0.020946
    2   C      2    1.9255  1.100     -1.471566     -0.527474     -1.214115
    3   C      3    1.9255  1.100     -2.853375     -0.330852     -1.219006
    4   C      4    1.9255  1.100     -3.556643     -0.238094     -0.000328
    5   C      5    1.9255  1.100     -2.862712     -0.344161      1.225367
    6   C      6    1.9255  1.100     -1.476166     -0.541457      1.230275
    7   F      7    1.6820  1.100      0.561543     -0.823903     -0.016141
    8   H      8    1.4430  1.100     -0.934580     -0.598300     -2.144646
    9   H      9    1.4430  1.100     -3.381899     -0.250067     -2.152543
   10   H     10    1.4430  1.100     -4.622133     -0.086482     -0.004099
   11   H     11    1.4430  1.100     -3.399257     -0.273393      2.155134
   12   H     12    1.4430  1.100     -0.923639     -0.625578      2.150545
   13   O     13    1.7500  1.100      3.337093     -1.218875     -0.001424
   14   C     14    1.9255  1.100      4.536446     -1.389556      0.006356
   15   H     15    1.4430  1.100      5.207144     -0.534114      0.014692
   16   H     16    1.4430  1.100      4.941934     -2.398116      0.003529
   17   H     17    1.4430  1.100      1.275292      1.360150     -0.001327
   18  Cl     18    1.9735  1.100      1.233347      2.622702      0.005280
 ------------------------------------------------------------------------------
 One-electron integrals computed using PRISM.
 NBasis=   284 RedAO= T EigKep=  1.13D-06  NBF=   284
 NBsUse=   284 1.00D-06 EigRej= -1.00D+00 NBFU=   284
 Initial guess from the checkpoint file:  "model_H1.chk"
 B after Tr=     0.000000   -0.000000    0.000000
         Rot=    0.999998   -0.000650    0.000191    0.001914 Ang=  -0.23 deg.
 ExpMin= 3.60D-02 ExpMax= 1.06D+05 ExpMxC= 3.62D+03 IAcc=3 IRadAn=         5 AccDes= 0.00D+00
 Harris functional with IExCor= 1009 and IRadAn=       5 diagonalized for initial guess.
 HarFok:  IExCor= 1009 AccDes= 0.00D+00 IRadAn=         5 IDoV= 1 UseB2=F ITyADJ=14
 ICtDFT=  3500011 ScaDFX=  1.000000  1.000000  1.000000  1.000000
 FoFCou: FMM=F IPFlag=           0 FMFlag=      100000 FMFlg1=           0
         NFxFlg=           0 DoJE=T BraDBF=F KetDBF=T FulRan=T
         wScrn=  0.000000 ICntrl=       500 IOpCl=  0 I1Cent=   200000004 NGrid=           0
         NMat0=    1 NMatS0=      1 NMatT0=    0 NMatD0=    1 NMtDS0=    0 NMtDT0=    0
 Petite list used in FoFCou.
 Requested convergence on RMS density matrix=1.00D-08 within 128 cycles.
 Requested convergence on MAX density matrix=1.00D-06.
 Requested convergence on             energy=1.00D-06.
 No special actions if energy rises.
 Inv3:  Mode=1 IEnd=    10659675.
[...]
      9          1           0        1.198345   -0.000000    3.153439
     10          1           0        3.337958   -0.000000    1.918477
     11          1           0        3.337600   -0.000000   -0.559809
     12          1           0        1.167660   -0.000000   -1.800761
     13          8           0       -4.192734   -0.000000   -2.427713
     14          6           0       -5.232759   -0.000000   -3.032344
     15          1           0       -5.709265    0.953897   -3.308475
     16          1           0       -5.709290   -0.953946   -3.308489
     17          1           0       -1.481656    2.028473   -0.855434
     18         17           0       -1.288065    3.296226   -0.743665
 ---------------------------------------------------------------------
                    Distance matrix (angstroms):
                    1          2          3          4          5
     1  C    0.000000
     2  C    1.378840   0.000000
     3  C    2.392457   1.383730   0.000000
     4  C    2.766927   2.399986   1.387534   0.000000
     5  C    2.400056   2.777125   2.410108   1.395415   0.000000
     6  C    1.388698   2.410177   2.788453   2.419610   1.398509
     7  F    1.353194   2.366046   3.628461   4.120118   3.632009
     8  H    2.137930   1.083951   2.142324   3.382723   3.861071
     9  H    3.373457   2.141316   1.082734   2.144737   3.391901
    10  H    3.850002   3.381297   2.145021   1.083078   2.152111
    11  H    3.384223   3.859785   3.390578   2.151770   1.082665
    12  H    2.146199   3.387225   3.871587   3.408283   2.166832
    13  O    4.844875   5.662938   7.021361   7.611788   7.019143
    14  C    6.047882   6.843998   8.209763   8.814792   8.206228
    15  H    6.667206   7.448258   8.806849   9.413977   8.803065
    16  H    6.667241   7.448292   8.806882   9.414010   8.803098
    17  H    2.653634   3.361843   4.456389   4.915824   4.458961
    18  Cl   3.616249   4.126650   4.996801   5.381800   4.999272
                    6          7          8          9         10
     6  C    0.000000
     7  F    2.361099   0.000000
     8  H    3.389467   2.607857   0.000000
     9  H    3.871183   4.504136   2.467073   0.000000
    10  H    3.401220   5.203194   4.276688   2.470440   0.000000
    11  H    2.154555   4.511013   4.943733   4.285397   2.478286
    12  H    1.083236   2.595628   4.276331   4.954295   4.306149
    13  O    5.646715   3.491683   5.431229   7.759704   8.694866
    14  C    6.826007   4.694690   6.555340   8.923173   9.897869
    15  H    7.430056   5.331452   7.142368   9.506910  10.492054
    16  H    7.430090   5.331489   7.142401   9.506942  10.492086
    17  H    3.356369   2.059766   3.480953   5.231460   5.919287
    18  Cl   4.123207   3.298954   4.252834   5.677566   6.273133
                   11         12         13         14         15
    11  H    0.000000
    12  H    2.499720   0.000000
    13  O    7.758544   5.396934   0.000000
    14  C    8.919893   6.517834   1.203009   0.000000
    15  H    9.503203   7.104592   1.996379   1.101466   0.000000
    16  H    9.503235   7.104625   1.996426   1.101522   1.907843
    17  H    5.237111   3.468028   3.733191   4.787945   5.004479
    18  Cl   5.682930   4.244189   4.705128   5.627057   5.622434
                   16         17         18
    16  H    0.000000
    17  H    5.725835   0.000000
    18  Cl   6.647519   1.287310   0.000000
 Stoichiometry    C7H8ClFO
 Framework group  C1[X(C7H8ClFO)]
 Deg. of freedom    48
 Full point group                 C1      NOp   1
 Largest Abelian subgroup         C1      NOp   1
 Largest concise Abelian subgroup C1      NOp   1
                         Standard orientation:                         
 ---------------------------------------------------------------------
 Center     Atomic      Atomic             Coordinates (Angstroms)
 Number     Number       Type             X           Y           Z
 ---------------------------------------------------------------------
      1          6           0       -0.869049   -0.622027   -0.007856
      2          6           0       -1.556126   -0.561297   -1.201772
      3          6           0       -2.935193   -0.447792   -1.201398
      4          6           0       -3.626642   -0.395089    0.000422
      5          6           0       -2.931306   -0.456549    1.208691
      6          6           0       -1.537509   -0.571266    1.208313
      7          9           0        0.479585   -0.733027   -0.008222
      8          1           0       -1.015961   -0.602469   -2.140642
      9          1           0       -3.474719   -0.400104   -2.138921
     10          1           0       -4.706070   -0.306246    0.000715
     11          1           0       -3.470830   -0.415426    2.146446
     12          1           0       -0.979554   -0.620435    2.135496
     13          8           0        3.959495   -1.019463   -0.003072
     14          6           0        5.158444   -1.118156    0.000216
     15          1           0        5.785566   -0.212658    0.004279
     16          1           0        5.629097   -2.114062   -0.002377
     17          1           0        1.002446    1.259259   -0.001241
     18         17           0        0.883652    2.541068    0.003243
 ---------------------------------------------------------------------
 Rotational constants (GHZ):           1.3229225           0.4088515           0.3505282

 **********************************************************************

            Population analysis using the SCF Density.

 **********************************************************************

 Orbital symmetries:
       Occupied  (A) (A) (A) (A) (A) (A) (A) (A) (A) (A) (A) (A)
                 (A) (A) (A) (A) (A) (A) (A) (A) (A) (A) (A) (A)
                 (A) (A) (A) (A) (A) (A) (A) (A) (A) (A) (A) (A)
                 (A) (A) (A) (A) (A) (A)
       Virtual   (A) (A) (A) (A) (A) (A) (A) (A) (A) (A) (A) (A)
                 (A) (A) (A) (A) (A) (A) (A) (A) (A) (A) (A) (A)
                 (A) (A) (A) (A) (A) (A) (A) (A) (A) (A) (A) (A)
                 (A) (A) (A) (A) (A) (A) (A) (A) (A) (A) (A) (A)
                 (A) (A) (A) (A) (A) (A) (A) (A) (A) (A) (A) (A)
                 (A) (A) (A) (A) (A) (A) (A) (A) (A) (A) (A) (A)
                 (A) (A) (A) (A) (A) (A) (A) (A) (A) (A) (A) (A)
                 (A) (A) (A) (A) (A) (A) (A) (A) (A) (A) (A) (A)
                 (A) (A) (A) (A) (A) (A) (A) (A) (A) (A) (A) (A)
                 (A) (A) (A) (A) (A) (A) (A) (A) (A) (A) (A) (A)
                 (A) (A) (A) (A) (A) (A) (A) (A) (A) (A) (A) (A)
                 (A) (A) (A) (A) (A) (A) (A) (A) (A) (A) (A) (A)
                 (A) (A) (A) (A) (A) (A) (A) (A) (A) (A) (A) (A)
                 (A) (A) (A) (A) (A) (A) (A) (A) (A) (A) (A) (A)
                 (A) (A) (A) (A) (A) (A) (A) (A) (A) (A) (A) (A)
                 (A) (A) (A) (A) (A) (A) (A) (A) (A) (A) (A) (A)
                 (A) (A) (A) (A) (A) (A) (A) (A) (A) (A) (A) (A)
                 (A) (A) (A) (A) (A) (A) (A) (A) (A) (A) (A) (A)
                 (A) (A) (A) (A) (A) (A) (A) (A) (A) (A) (A) (A)
                 (A) (A) (A) (A) (A) (A) (A) (A) (A) (A) (A) (A)
                 (A) (A)
 The electronic state is 1-A.
 Alpha  occ. eigenvalues -- -102.67347 -25.27114 -19.64497 -10.63970 -10.63882
 Alpha  occ. eigenvalues --  -10.56060 -10.55977 -10.55820 -10.55726 -10.55243
 Alpha  occ. eigenvalues --   -9.81667  -7.54152  -7.53532  -7.53532  -1.38902
 Alpha  occ. eigenvalues --   -1.19242  -0.98056  -0.93617  -0.86393  -0.85895
 Alpha  occ. eigenvalues --   -0.72289  -0.71907  -0.71403  -0.64118  -0.59375
 Alpha  occ. eigenvalues --   -0.58653  -0.58341  -0.58114  -0.53847  -0.52506
 Alpha  occ. eigenvalues --   -0.52101  -0.50696  -0.49430  -0.47715  -0.44846
 Alpha  occ. eigenvalues --   -0.43969  -0.41740  -0.39406  -0.39391  -0.34792
 Alpha  occ. eigenvalues --   -0.32513  -0.31517
 Alpha virt. eigenvalues --   -0.00784  -0.00088   0.00396   0.00691   0.01287
 Alpha virt. eigenvalues --    0.01401   0.01893   0.02561   0.03394   0.03645
 Alpha virt. eigenvalues --    0.04303   0.06116   0.06575   0.07046   0.07461
 Alpha virt. eigenvalues --    0.08183   0.08685   0.09364   0.10644   0.10901
 Alpha virt. eigenvalues --    0.11446   0.11659   0.11970   0.12877   0.13246
 Alpha virt. eigenvalues --    0.13537   0.13573   0.13935   0.14373   0.14615
 Alpha virt. eigenvalues --    0.15180   0.15862   0.16089   0.16826   0.16880
 Alpha virt. eigenvalues --    0.16921   0.17317   0.18131   0.19543   0.19759
 Alpha virt. eigenvalues --    0.20850   0.21985   0.22506   0.23249   0.23457
 Alpha virt. eigenvalues --    0.25253   0.25449   0.27479   0.28292   0.29924
 Alpha virt. eigenvalues --    0.30116   0.30653   0.30967   0.32198   0.32690
 Alpha virt. eigenvalues --    0.33638   0.33887   0.37116   0.38166   0.39545
 Alpha virt. eigenvalues --    0.40100   0.41221   0.41336   0.42225   0.46247
 Alpha virt. eigenvalues --    0.47283   0.49246   0.49395   0.51327   0.52751
 Alpha virt. eigenvalues --    0.53122   0.54501   0.55000   0.56867   0.57659
 Alpha virt. eigenvalues --    0.58103   0.58272   0.58571   0.59615   0.60259
 Alpha virt. eigenvalues --    0.61196   0.63465   0.63547   0.65123   0.67225
 Alpha virt. eigenvalues --    0.68308   0.69985   0.70665   0.71788   0.74490
 Alpha virt. eigenvalues --    0.76683   0.77610   0.80996   0.81127   0.82489
 Alpha virt. eigenvalues --    0.84287   0.88141   0.88251   0.89981   0.91097
 Alpha virt. eigenvalues --    0.91526   0.92687   0.92802   0.94163   0.96265
 Alpha virt. eigenvalues --    0.97552   0.98213   1.01365   1.02916   1.04513
 Alpha virt. eigenvalues --    1.05110   1.05310   1.06444   1.09460   1.12208
 Alpha virt. eigenvalues --    1.12395   1.14533   1.14892   1.17708   1.18143
 Alpha virt. eigenvalues --    1.22479   1.23553   1.32634   1.33716   1.40686
 Alpha virt. eigenvalues --    1.44634   1.47410   1.48784   1.48821   1.51801
 Alpha virt. eigenvalues --    1.51964   1.53185   1.55519   1.56064   1.60097
 Alpha virt. eigenvalues --    1.60863   1.61060   1.61545   1.63562   1.68238
 Alpha virt. eigenvalues --    1.68652   1.68931   1.70393   1.74202   1.76979
 Alpha virt. eigenvalues --    1.77404   1.77823   1.79912   1.86192   1.86554
 Alpha virt. eigenvalues --    1.89987   1.91331   1.94609   1.95185   1.96191
 Alpha virt. eigenvalues --    1.98800   1.99113   2.01214   2.04505   2.06528
 Alpha virt. eigenvalues --    2.10093   2.10175   2.17091   2.17937   2.23162
 Alpha virt. eigenvalues --    2.29479   2.30621   2.30819   2.34007   2.35296
 Alpha virt. eigenvalues --    2.43767   2.44065   2.45124   2.47229   2.48682
 Alpha virt. eigenvalues --    2.50301   2.52176   2.52816   2.61535   2.64866
 Alpha virt. eigenvalues --    2.66330   2.69282   2.71913   2.72963   2.73072
 Alpha virt. eigenvalues --    2.73659   2.76388   2.76701   2.79763   2.84436
 Alpha virt. eigenvalues --    2.85332   2.85559   2.88618   2.94231   2.94365
 Alpha virt. eigenvalues --    2.94483   2.97740   2.98174   3.13795   3.18500
 Alpha virt. eigenvalues --    3.25395   3.38925   3.39431   3.42485   3.48396
 Alpha virt. eigenvalues --    3.53027   3.55461   3.56439   3.66443   3.74099
 Alpha virt. eigenvalues --    3.79019   3.86689   3.93765   3.96032   4.02879
 Alpha virt. eigenvalues --    4.06443   4.08968   4.16447   4.19317   4.20435
 Alpha virt. eigenvalues --    4.85770   4.95044   5.09830   5.21066   5.77694
 Alpha virt. eigenvalues --    6.51452   6.58689   6.88703   9.95676  23.66506
 Alpha virt. eigenvalues --   23.99446  24.01125  24.05127  24.15544  24.17017
 Alpha virt. eigenvalues --   24.27626  25.91385  26.01850  26.15437  50.03982
 Alpha virt. eigenvalues --   66.94703 216.05343
          Condensed to atoms (all electrons):
               1          2          3          4          5          6
     1  C   13.263668  -5.544407   3.582912  -3.514056   3.493236  -4.956853
     2  C   -5.544407  13.585312  -3.909508   3.291098  -3.597258   1.633364
     3  C    3.582912  -3.909508   9.815915  -3.136688   3.449892  -3.572560
     4  C   -3.514056   3.291098  -3.136688   8.957697  -3.024532   3.128208
     5  C    3.493236  -3.597258   3.449892  -3.024532   9.550823  -3.643670
     6  C   -4.956853   1.633364  -3.572560   3.128208  -3.643670  12.895268
     7  F    0.869416  -0.533772   0.133477  -0.094832   0.131139  -0.515635
     8  H   -0.281791   0.674184  -0.164649   0.101804  -0.082851   0.058285
     9  H    0.080420  -0.077068   0.391360  -0.081429   0.030398  -0.011565
    10  H   -0.015220   0.014471  -0.034473   0.383654  -0.032795   0.014399
    11  H    0.070776  -0.009534   0.027603  -0.074345   0.385289  -0.068718
    12  H   -0.265825   0.062280  -0.084974   0.098211  -0.158782   0.654246
    13  O    0.011650  -0.002455  -0.000534  -0.000159  -0.000496  -0.002658
    14  C    0.002768  -0.002895   0.001030  -0.000382   0.001017  -0.002470
    15  H   -0.000289   0.000256  -0.000197   0.000098  -0.000195   0.000211
    16  H   -0.001049   0.000492  -0.000086   0.000067  -0.000087   0.000453
    17  H   -0.048171   0.044243  -0.041695   0.042440  -0.040894   0.042159
    18  Cl   0.152178  -0.095233   0.058728  -0.056853   0.057446  -0.090840
               7          8          9         10         11         12
     1  C    0.869416  -0.281791   0.080420  -0.015220   0.070776  -0.265825
     2  C   -0.533772   0.674184  -0.077068   0.014471  -0.009534   0.062280
     3  C    0.133477  -0.164649   0.391360  -0.034473   0.027603  -0.084974
     4  C   -0.094832   0.101804  -0.081429   0.383654  -0.074345   0.098211
     5  C    0.131139  -0.082851   0.030398  -0.032795   0.385289  -0.158782
     6  C   -0.515635   0.058285  -0.011565   0.014399  -0.068718   0.654246
     7  F    9.197289  -0.028692   0.001929  -0.000873   0.001725  -0.028497
     8  H   -0.028692   0.473721  -0.006701   0.001807  -0.000069   0.003247
     9  H    0.001929  -0.006701   0.444472   0.000063   0.000466  -0.000149
    10  H   -0.000873   0.001807   0.000063   0.447104   0.000352   0.001724
    11  H    0.001725  -0.000069   0.000466   0.000352   0.443553  -0.005646
    12  H   -0.028497   0.003247  -0.000149   0.001724  -0.005646   0.471244
    13  O    0.003614   0.000876   0.000002  -0.000002   0.000001   0.000914
    14  C    0.000007  -0.000486   0.000015  -0.000003   0.000014  -0.000493
    15  H   -0.000153   0.000023  -0.000005   0.000001  -0.000005   0.000023
    16  H   -0.000101   0.000043  -0.000003   0.000000  -0.000003   0.000044
    17  H    0.014935   0.000468  -0.001409   0.000434  -0.001351   0.000387
    18  Cl  -0.011916  -0.002674   0.001821  -0.000527   0.001737  -0.002480
              13         14         15         16         17         18
     1  C    0.011650   0.002768  -0.000289  -0.001049  -0.048171   0.152178
     2  C   -0.002455  -0.002895   0.000256   0.000492   0.044243  -0.095233
     3  C   -0.000534   0.001030  -0.000197  -0.000086  -0.041695   0.058728
     4  C   -0.000159  -0.000382   0.000098   0.000067   0.042440  -0.056853
     5  C   -0.000496   0.001017  -0.000195  -0.000087  -0.040894   0.057446
     6  C   -0.002658  -0.002470   0.000211   0.000453   0.042159  -0.090840
     7  F    0.003614   0.000007  -0.000153  -0.000101   0.014935  -0.011916
     8  H    0.000876  -0.000486   0.000023   0.000043   0.000468  -0.002674
     9  H    0.000002   0.000015  -0.000005  -0.000003  -0.001409   0.001821
    10  H   -0.000002  -0.000003   0.000001   0.000000   0.000434  -0.000527
    11  H    0.000001   0.000014  -0.000005  -0.000003  -0.001351   0.001737
    12  H    0.000914  -0.000493   0.000023   0.000044   0.000387  -0.002480
    13  O    8.132933   0.301448  -0.080525  -0.084429   0.005913  -0.002675
    14  C    0.301448   4.882535   0.389711   0.392842  -0.001604  -0.000395
    15  H   -0.080525   0.389711   0.671236  -0.110839   0.000507   0.000558
    16  H   -0.084429   0.392842  -0.110839   0.674922   0.000280  -0.000045
    17  H    0.005913  -0.001604   0.000507   0.000280   0.610881   0.257351
    18  Cl  -0.002675  -0.000395   0.000558  -0.000045   0.257351  16.856508
 Mulliken charges:
               1
     1  C   -0.899365
     2  C    0.466429
     3  C   -0.515553
     4  C   -0.019999
     5  C   -0.517679
     6  C    0.438377
     7  F   -0.139060
     8  H    0.253455
     9  H    0.227384
    10  H    0.219882
    11  H    0.228155
    12  H    0.254529
    13  O   -0.283416
    14  C    0.037342
    15  H    0.129584
    16  H    0.127500
    17  H    0.115125
    18  Cl  -0.122688
 Sum of Mulliken charges =  -0.00000
 Mulliken charges with hydrogens summed into heavy atoms:
               1
     1  C   -0.899365
     2  C    0.719884
     3  C   -0.288169
     4  C    0.199883
     5  C   -0.289524
     6  C    0.692905
     7  F   -0.139060
    13  O   -0.283416
    14  C    0.294426
    18  Cl  -0.007563
 Electronic spatial extent (au):  <R**2>=           3088.6066
 Charge=              0.0000 electrons
 Dipole moment (field-independent basis, Debye):
    X=              0.7477    Y=             -1.8884    Z=             -0.0106  Tot=              2.0310
 Quadrupole moment (field-independent basis, Debye-Ang):
   XX=            -31.6697   YY=            -73.4090   ZZ=            -59.2454
   XY=             -4.9651   XZ=              0.1305   YZ=             -0.0491
 Traceless Quadrupole moment (field-independent basis, Debye-Ang):
   XX=             23.1050   YY=            -18.6343   ZZ=             -4.4707
   XY=             -4.9651   XZ=              0.1305   YZ=             -0.0491
 Octapole moment (field-independent basis, Debye-Ang**2):
  XXX=            171.2277  YYY=             -5.1181  ZZZ=             -0.1693  XYY=             24.4469
  XXY=            -35.3061  XXZ=             -0.1777  XZZ=             -3.7119  YZZ=             -5.0249
  YYZ=             -0.0649  XYZ=             -0.0033
 Hexadecapole moment (field-independent basis, Debye-Ang**3):
 XXXX=          -1710.6101 YYYY=           -745.2559 ZZZZ=           -283.0041 XXXY=           -232.3912
 XXXZ=              1.1270 YYYX=            -61.5534 YYYZ=              0.3319 ZZZX=              0.4651
 ZZZY=             -0.1479 XXYY=           -608.3184 XXZZ=           -516.4153 YYZZ=           -187.2173
 XXYZ=             -0.1300 YYXZ=              0.1797 ZZXY=             -2.2248
 N-N= 5.215916668098D+02 E-N=-3.183720904816D+03  KE= 9.041975577596D+02
 1\1\GINC-R820\POpt\RM062X\6-311++G(d,p)\C7H8Cl1F1O1\ZJXU\02-Apr-2024\1
 \\# m062x 6-311++G(d,p) opt=(maxcyc=50,z-matrix) scrf=(solvent=chlorof
 orm)\\test\\0,1\C\C,1,d1\C,2,d2,1,120.\C,3,d3,2,120.,1,0.,0\C,4,d4,3,1
 20.,2,0.,0\C,5,d5,4,120.,3,0.,0\F,1,d6,2,120.,3,180.,0\H,2,d7,3,120.,4
 ,180.,0\H,3,d8,4,120.,5,180.,0\H,4,d9,5,120.,6,180.,0\H,5,d10,6,120.,1
 ,180.,0\H,6,d11,1,120.,2,180.,0\O,7,d12,1,179.9,3,180.,0\C,13,d13,1,17
 9.9,2,180.,0\H,14,d14,1,120.,2,90.,0\H,14,d15,1,120.,2,-90.,0\H,7,d16,
 1,100.,2,90.,0\Cl,17,d17,7,160.,1,0.,0\\d1=1.37884001\d2=1.38372999\d3
 =1.38753437\d4=1.39541492\d5=1.39850939\d6=1.35319393\d7=1.08395082\d8
 =1.08273407\d9=1.08307767\d10=1.08266468\d11=1.08323605\d12=3.49168255
 \d13=1.2030086\d14=1.10146558\d15=1.10152154\d16=2.05976575\d17=1.2873
 0969\\Version=ES64L-G16RevB.01\State=1-A\HF=-906.736888\RMSD=2.293e-09
 \RMSF=3.839e-03\Dipole=-0.3074685,-0.7163219,-0.1756853\Quadrupole=12.
 2540676,-14.2489646,1.994897,0.9611943,9.1030203,0.5440662\PG=C01 [X(C
 7H8Cl1F1O1)]\\@


 UNDER MOST GREENE GRASSE LY MOST GREATE SNAKES.
 -- PROVERBS AND REASONS OF THE YEAR 1585
           AS REPRINTED IN PAISLEY MAGAZINE 1828.
 Job cpu time:       0 days  4 hours 54 minutes 16.7 seconds.
 Elapsed time:       0 days  2 hours 27 minutes 13.1 seconds.
 File lengths (MBytes):  RWF=    165 Int=      0 D2E=      0 Chk=     11 Scr=      1
 Normal termination of Gaussian 16 at Tue Apr  2 10:01:20 2024.
