 Entering Gaussian System, Link 0=g16
 Input=model_H3.gjf
 Output=model_H3.log
 Initial command:
 /home/zjxu/prog/g16/l1.exe "/home/zjxu/zjhan/5_model/HCl/vacuum_new/Gau-33715.inp" -scrdir="/home/zjxu/zjhan/5_model/HCl/vacuum_new/"
 Entering Link 1 = /home/zjxu/prog/g16/l1.exe PID=     33716.
  
 Copyright (c) 1988-2017, Gaussian, Inc.  All Rights Reserved.
  
 This is part of the Gaussian(R) 16 program.  It is based on
 the Gaussian(R) 09 system (copyright 2009, Gaussian, Inc.),
 the Gaussian(R) 03 system (copyright 2003, Gaussian, Inc.),
 the Gaussian(R) 98 system (copyright 1998, Gaussian, Inc.),
 the Gaussian(R) 94 system (copyright 1995, Gaussian, Inc.),
 the Gaussian 92(TM) system (copyright 1992, Gaussian, Inc.),
 the Gaussian 90(TM) system (copyright 1990, Gaussian, Inc.),
 the Gaussian 88(TM) system (copyright 1988, Gaussian, Inc.),
 the Gaussian 86(TM) system (copyright 1986, Carnegie Mellon
 University), and the Gaussian 82(TM) system (copyright 1983,
 Carnegie Mellon University). Gaussian is a federally registered
 trademark of Gaussian, Inc.
  
 This software contains proprietary and confidential information,
 including trade secrets, belonging to Gaussian, Inc.
  
 This software is provided under written license and may be
 used, copied, transmitted, or stored only in accord with that
 written license.
  
 The following legend is applicable only to US Government
 contracts under FAR:
  
                    RESTRICTED RIGHTS LEGEND
  
 Use, reproduction and disclosure by the US Government is
 subject to restrictions as set forth in subparagraphs (a)
 and (c) of the Commercial Computer Software - Restricted
 Rights clause in FAR 52.227-19.
  
 Gaussian, Inc.
 340 Quinnipiac St., Bldg. 40, Wallingford CT 06492
  
  
 ---------------------------------------------------------------
 Warning -- This program may not be used in any manner that
 competes with the business of Gaussian, Inc. or will provide
 assistance to any competitor of Gaussian, Inc.  The licensee
 of this program is prohibited from giving any competitor of
 Gaussian, Inc. access to this program.  By using this program,
 the user acknowledges that Gaussian, Inc. is engaged in the
 business of creating and licensing software in the field of
 computational chemistry and represents and warrants to the
 licensee that it is not a competitor of Gaussian, Inc. and that
 it will not use this program in any manner prohibited above.
 ---------------------------------------------------------------
  

 Cite this work as:
 Gaussian 16, Revision B.01,
 M. J. Frisch, G. W. Trucks, H. B. Schlegel, G. E. Scuseria, 
 M. A. Robb, J. R. Cheeseman, G. Scalmani, V. Barone, 
 G. A. Petersson, H. Nakatsuji, X. Li, M. Caricato, A. V. Marenich, 
 J. Bloino, B. G. Janesko, R. Gomperts, B. Mennucci, H. P. Hratchian, 
 J. V. Ortiz, A. F. Izmaylov, J. L. Sonnenberg, D. Williams-Young, 
 F. Ding, F. Lipparini, F. Egidi, J. Goings, B. Peng, A. Petrone, 
 T. Henderson, D. Ranasinghe, V. G. Zakrzewski, J. Gao, N. Rega, 
 G. Zheng, W. Liang, M. Hada, M. Ehara, K. Toyota, R. Fukuda, 
 J. Hasegawa, M. Ishida, T. Nakajima, Y. Honda, O. Kitao, H. Nakai, 
 T. Vreven, K. Throssell, J. A. Montgomery, Jr., J. E. Peralta, 
 F. Ogliaro, M. J. Bearpark, J. J. Heyd, E. N. Brothers, K. N. Kudin, 
 V. N. Staroverov, T. A. Keith, R. Kobayashi, J. Normand, 
 K. Raghavachari, A. P. Rendell, J. C. Burant, S. S. Iyengar, 
 J. Tomasi, M. Cossi, J. M. Millam, M. Klene, C. Adamo, R. Cammi, 
 J. W. Ochterski, R. L. Martin, K. Morokuma, O. Farkas, 
 J. B. Foresman, and D. J. Fox, Gaussian, Inc., Wallingford CT, 2016.
 
 ******************************************
 Gaussian 16:  ES64L-G16RevB.01 20-Dec-2017
                28-Mar-2024 
 ******************************************
 %mem=2GB
 %nproc=2
 Will use up to    2 processors via shared memory.
 %chk=model_H3
 ----------------------------------
 # m062x 6-311++G(d,p) opt=z-matrix
 ----------------------------------
 1/10=7,18=40,26=3,38=1/1,3;
 2/12=2,17=6,18=5,29=3,40=1/2;
 3/5=4,6=6,7=1111,11=2,25=1,30=1,71=1,74=-55/1,2,3;
 4//1;
 5/5=2,38=5/2;
 6/7=2,8=2,9=2,10=2,28=1/1;
 7/29=1/1,2,3,16;
 1/10=7,18=40,26=3/3(2);
 2/29=3/2;
 99//99;
 2/29=3/2;
 3/5=4,6=6,7=1111,11=2,25=1,30=1,71=1,74=-55/1,2,3;
 4/5=5,16=3,69=1/1;
 5/5=2,38=5/2;
 7//1,2,3,16;
 1/18=40,26=3/3(-5);
 2/29=3/2;
 6/7=2,8=2,9=2,10=2,19=2,28=1/1;
 99/9=1/99;
 ----
 test
 ----
 Symbolic Z-matrix:
 Charge =  0 Multiplicity = 1
 C1
 C2                   1    d1
 C3                   2    d2       1     120. 
 C4                   3    d3       2     120.     1     0.       0
 C5                   4    d4       3     120.     2     0.       0
 C6                   5    d5       4     120.     3     0.       0
 F7                   1    d6       2     120.     3     180.     0
 H8                   2    d7       3     120.     4     180.     0
 H9                   3    d8       4     120.     5     180.     0
 H10                  4    d9       5     120.     6     180.     0
 H11                  5    d10      6     120.     1     180.     0
 H12                  6    d11      1     120.     2     180.     0
 O13                  7    d12      1     179.9    3     180.     0
 C14                  13   d13      1     179.9    2     180.     0
 H15                  14   d14      1     120.     2     90.      0
 H16                  14   d15      1     120.     2    -90.      0
 H17                  7    d16      1     100.     2     90.      0
 Cl18                 17   d17      7     160.     1     0.       0
 H19                  7    d18      1     100.     2    -30.      0
 Cl20                 19   d19      7     160.     1     0.       0
 H21                  7    d18      1     100.     2    -150.     0
 Cl22                 21   d19      7     160.     1     0.       0
       Variables:
  d1                    1.3                      
  d2                    1.3                      
  d3                    1.3                      
  d4                    1.3                      
  d5                    1.3                      
  d6                    1.4                      
  d7                    1.                       
  d8                    1.                       
  d9                    1.                       
  d10                   1.                       
  d11                   1.                       
  d12                   2.8                      
  d13                   1.2                      
  d14                   1.                       
  d15                   1.                       
  d16                   2.3                      
  d17                   0.9                      
  d18                   2.3                      
  d19                   0.9                      
 

 GradGradGradGradGradGradGradGradGradGradGradGradGradGradGradGradGradGrad
 Berny optimization.
 Initialization pass.
                       ----------------------------
                       !    Initial Parameters    !
                       ! (Angstroms and Degrees)  !
 ----------------------                            ----------------------
 !      Name          Value   Derivative information (Atomic Units)     !
 ------------------------------------------------------------------------
 !       d1          1.3      estimate D2E/DX2                          !
 !       d2          1.3      estimate D2E/DX2                          !
 !       d3          1.3      estimate D2E/DX2                          !
 !       d4          1.3      estimate D2E/DX2                          !
 !       d5          1.3      estimate D2E/DX2                          !
 !       d6          1.4      estimate D2E/DX2                          !
 !       d7          1.0      estimate D2E/DX2                          !
 !       d8          1.0      estimate D2E/DX2                          !
 !       d9          1.0      estimate D2E/DX2                          !
 !       d10         1.0      estimate D2E/DX2                          !
 !       d11         1.0      estimate D2E/DX2                          !
 !       d12         2.8      estimate D2E/DX2                          !
 !       d13         1.2      estimate D2E/DX2                          !
 !       d14         1.0      estimate D2E/DX2                          !
 !       d15         1.0      estimate D2E/DX2                          !
 !       d16         2.3      estimate D2E/DX2                          !
 !       d17         0.9      estimate D2E/DX2                          !
 !       d18         2.3      estimate D2E/DX2                          !
 !       d19         0.9      estimate D2E/DX2                          !
 ------------------------------------------------------------------------
 Trust Radius=3.00D-01 FncErr=1.00D-07 GrdErr=1.00D-06 EigMax=2.50D+02 EigMin=1.00D-04
 Number of steps in this run=     29 maximum allowed number of steps=    100.
 GradGradGradGradGradGradGradGradGradGradGradGradGradGradGradGradGradGrad

 ---------------------------------------------------------------------------------------------------
                            Z-MATRIX (ANGSTROMS AND DEGREES)
   CD    Cent   Atom    N1       Length/X        N2       Alpha/Y        N3        Beta/Z          J
 ---------------------------------------------------------------------------------------------------
      1      1  C 
      2      2  C        1   1.300000(     1)
      3      3  C        2   1.300000(     2)      1  120.000(    22)
      4      4  C        3   1.300000(     3)      2  120.000(    23)      1    0.000(    42)      0
      5      5  C        4   1.300000(     4)      3  120.000(    24)      2    0.000(    43)      0
      6      6  C        5   1.300000(     5)      4  120.000(    25)      3    0.000(    44)      0
      7      7  F        1   1.400000(     6)      2  120.000(    26)      3  180.000(    45)      0
      8      8  H        2   1.000000(     7)      3  120.000(    27)      4  180.000(    46)      0
      9      9  H        3   1.000000(     8)      4  120.000(    28)      5  180.000(    47)      0
     10     10  H        4   1.000000(     9)      5  120.000(    29)      6  180.000(    48)      0
     11     11  H        5   1.000000(    10)      6  120.000(    30)      1  180.000(    49)      0
     12     12  H        6   1.000000(    11)      1  120.000(    31)      2  180.000(    50)      0
     13     13  O        7   2.800000(    12)      1  179.900(    32)      3  180.000(    51)      0
     14     14  C       13   1.200000(    13)      1  179.900(    33)      2  180.000(    52)      0
     15     15  H       14   1.000000(    14)      1  120.000(    34)      2   90.000(    53)      0
     16     16  H       14   1.000000(    15)      1  120.000(    35)      2  -90.000(    54)      0
     17     17  H        7   2.300000(    16)      1  100.000(    36)      2   90.000(    55)      0
     18     18  Cl      17   0.900000(    17)      7  160.000(    37)      1    0.000(    56)      0
     19     19  H        7   2.300000(    18)      1  100.000(    38)      2  -30.000(    57)      0
     20     20  Cl      19   0.900000(    19)      7  160.000(    39)      1    0.000(    58)      0
     21     21  H        7   2.300000(    20)      1  100.000(    40)      2 -150.000(    59)      0
     22     22  Cl      21   0.900000(    21)      7  160.000(    41)      1    0.000(    60)      0
 ---------------------------------------------------------------------------------------------------
                         Z-Matrix orientation:                         
 ---------------------------------------------------------------------
 Center     Atomic      Atomic             Coordinates (Angstroms)
 Number     Number       Type             X           Y           Z
 ---------------------------------------------------------------------
      1          6           0        0.000000    0.000000    0.000000
      2          6           0        0.000000    0.000000    1.300000
      3          6           0        1.125833    0.000000    1.950000
      4          6           0        2.251666    0.000000    1.300000
      5          6           0        2.251666    0.000000   -0.000000
      6          6           0        1.125833    0.000000   -0.650000
      7          9           0       -1.212436   -0.000000   -0.700000
      8          1           0       -0.866025   -0.000000    1.800000
      9          1           0        1.125833   -0.000000    2.950000
     10          1           0        3.117691   -0.000000    1.800000
     11          1           0        3.117691   -0.000000   -0.500000
     12          1           0        1.125833   -0.000000   -1.650000
     13          8           0       -3.634860   -0.000000   -2.104230
     14          6           0       -4.672340   -0.000000   -2.707251
     15          1           0       -5.104965    0.866025   -2.957922
     16          1           0       -5.104965   -0.866025   -2.957922
     17          1           0       -1.558318    2.265058   -0.899695
     18         17           0       -1.422973    3.151385   -0.821554
     19          1           0       -2.539117   -1.132529    0.799098
     20         17           0       -2.787562   -1.575692    1.541985
     21          1           0       -0.577519   -1.132529   -2.598489
     22         17           0       -0.058383   -1.575692   -3.185092
 ---------------------------------------------------------------------
                    Distance matrix (angstroms):
                    1          2          3          4          5
     1  C    0.000000
     2  C    1.300000   0.000000
     3  C    2.251666   1.300000   0.000000
     4  C    2.600000   2.251666   1.300000   0.000000
     5  C    2.251666   2.600000   2.251666   1.300000   0.000000
     6  C    1.300000   2.251666   2.600000   2.251666   1.300000
     7  F    1.400000   2.338803   3.534119   4.000000   3.534119
     8  H    1.997498   1.000000   1.997498   3.157531   3.600000
     9  H    3.157531   1.997498   1.000000   1.997498   3.157531
    10  H    3.600000   3.157531   1.997498   1.000000   1.997498
    11  H    3.157531   3.600000   3.157531   1.997498   1.000000
    12  H    1.997498   3.157531   3.600000   3.157531   1.997498
    13  O    4.199999   4.980059   6.253077   6.799997   6.251317
    14  C    5.399997   6.155390   7.436988   7.999995   7.434452
    15  H    5.963218   6.703772   7.978755   8.543999   7.976172
    16  H    5.963218   6.703772   7.978755   8.543999   7.976172
    17  H    2.892800   3.521009   4.522822   4.948245   4.522822
    18  Cl   3.554016   4.056731   4.910107   5.285375   4.910107
    19  H    2.892800   2.825003   4.004879   4.948245   4.987262
    20  Cl   3.554016   3.211210   4.238390   5.285375   5.500395
    21  H    2.892800   4.100532   4.987262   4.948245   4.004879
    22  Cl   3.554016   4.754184   5.500395   5.285375   4.238390
                    6          7          8          9         10
     6  C    0.000000
     7  F    2.338803   0.000000
     8  H    3.157531   2.523886   0.000000
     9  H    3.600000   4.334743   2.300000   0.000000
    10  H    3.157531   5.000000   3.983717   2.300000   0.000000
    11  H    1.997498   4.334743   4.600000   3.983717   2.300000
    12  H    1.000000   2.523886   3.983717   4.600000   3.983717
    13  O    4.977849   2.800000   4.786382   6.943301   7.799997
    14  C    6.152324   3.999999   5.899436   8.100821   8.999995
    15  H    6.700697   4.582575   6.430896   8.629970   9.539387
    16  H    6.700697   4.582575   6.430896   8.629970   9.539387
    17  H    3.521009   2.300000   3.591394   5.211076   5.855246
    18  Cl   4.056731   3.160748   4.136902   5.536448   6.117303
    19  H    4.100532   2.300000   2.254698   4.397824   5.855246
    20  Cl   4.754184   3.160748   2.498336   4.447469   6.117303
    21  H    2.825003   2.300000   4.551105   5.913523   5.855246
    22  Cl   3.211210   3.160748   5.290202   6.443953   6.117303
                   11         12         13         14         15
    11  H    0.000000
    12  H    2.300000   0.000000
    13  O    6.940497   4.782313   0.000000
    14  C    8.096700   5.893776   1.200000   0.000000
    15  H    8.625744   6.425224   1.907878   1.000000   0.000000
    16  H    8.625744   6.425224   1.907878   1.000000   1.732051
    17  H    5.211076   3.591394   3.300517   4.253807   4.332700
    18  Cl   5.536448   4.136902   4.058193   4.903618   4.831563
    19  H    5.913523   4.551105   3.303421   4.257669   4.969204
    20  Cl   6.443953   5.290202   4.061478   4.908278   5.619742
    21  H    4.397824   2.254698   3.297612   4.249942   4.961973
    22  Cl   4.447469   2.498336   4.054905   4.898953   5.610845
                   16         17         18         19         20
    16  H    0.000000
    17  H    5.159329   0.000000
    18  Cl   5.853266   0.900000   0.000000
    19  H    4.557389   3.923195   4.714256   0.000000
    20  Cl   5.111080   4.714256   5.458359   0.900000   0.000000
    21  H    4.549503   3.923195   4.714256   3.923195   4.714256
    22  Cl   5.101296   4.714256   5.458359   4.714256   5.458359
                   21         22
    21  H    0.000000
    22  Cl   0.900000   0.000000
 Stoichiometry    C7H10Cl3FO
 Framework group  C1[X(C7H10Cl3FO)]
 Deg. of freedom    60
 Full point group                 C1      NOp   1
 Largest Abelian subgroup         C1      NOp   1
 Largest concise Abelian subgroup C1      NOp   1
                         Standard orientation:                         
 ---------------------------------------------------------------------
 Center     Atomic      Atomic             Coordinates (Angstroms)
 Number     Number       Type             X           Y           Z
 ---------------------------------------------------------------------
      1          6           0       -1.033304   -0.001031    0.000000
      2          6           0       -1.685405    1.123586    0.000000
      3          6           0       -2.985402    1.121160    0.000000
      4          6           0       -3.633300   -0.005884    0.000000
      5          6           0       -2.981200   -1.130502    0.000000
      6          6           0       -1.681202   -1.128076    0.000000
      7          9           0        0.366693    0.001582    0.000000
      8          1           0       -1.187022    1.990544    0.000000
      9          1           0       -3.487018    1.986251    0.000000
     10          1           0       -4.633298   -0.007751    0.000000
     11          1           0       -3.479582   -1.997459    0.000000
     12          1           0       -1.179586   -1.993166    0.000000
     13          8           0        3.166693    0.001921    0.000000
     14          6           0        4.366692    0.000670    0.000000
     15          1           0        4.866692    0.000828    0.866025
     16          1           0        4.866692    0.000828   -0.866025
     17          1           0        0.766083    0.002327    2.265058
     18         17           0        0.609800    0.002035    3.151385
     19          1           0        0.762422    1.963921   -1.132529
     20         17           0        0.604706    2.731210   -1.575692
     21          1           0        0.769745   -1.959267   -1.132529
     22         17           0        0.614894   -2.727139   -1.575692
 ---------------------------------------------------------------------
 Rotational constants (GHZ):           0.4449902           0.3342099           0.3183525
 Standard basis: 6-311++G(d,p) (5D, 7F)
 There are   370 symmetry adapted cartesian basis functions of A   symmetry.
 There are   358 symmetry adapted basis functions of A   symmetry.
   358 basis functions,   573 primitive gaussians,   370 cartesian basis functions
    60 alpha electrons       60 beta electrons
       nuclear repulsion energy       980.5257082673 Hartrees.
 NAtoms=   22 NActive=   22 NUniq=   22 SFac= 1.00D+00 NAtFMM=   60 NAOKFM=F Big=F
 Integral buffers will be    131072 words long.
 Raffenetti 2 integral format.
 Two-electron integral symmetry is turned on.
 One-electron integrals computed using PRISM.
 NBasis=   358 RedAO= T EigKep=  2.82D-06  NBF=   358
 NBsUse=   357 1.00D-06 EigRej=  3.59D-07 NBFU=   357
 ExpMin= 3.60D-02 ExpMax= 1.06D+05 ExpMxC= 3.62D+03 IAcc=3 IRadAn=         5 AccDes= 0.00D+00
 Harris functional with IExCor= 1009 and IRadAn=       5 diagonalized for initial guess.
 HarFok:  IExCor= 1009 AccDes= 0.00D+00 IRadAn=         5 IDoV= 1 UseB2=F ITyADJ=14
 ICtDFT=  3500011 ScaDFX=  1.000000  1.000000  1.000000  1.000000
 FoFCou: FMM=F IPFlag=           0 FMFlag=      100000 FMFlg1=           0
         NFxFlg=           0 DoJE=T BraDBF=F KetDBF=T FulRan=T
         wScrn=  0.000000 ICntrl=       500 IOpCl=  0 I1Cent=   200000004 NGrid=           0
         NMat0=    1 NMatS0=      1 NMatT0=    0 NMatD0=    1 NMtDS0=    0 NMtDT0=    0
 Petite list used in FoFCou.
 Requested convergence on RMS density matrix=1.00D-08 within 128 cycles.
 Requested convergence on MAX density matrix=1.00D-06.
 Requested convergence on             energy=1.00D-06.
 No special actions if energy rises.
 SCF Done:  E(RM062X) =  -1827.65754435     A.U. after   14 cycles
            NFock= 14  Conv=0.77D-08     -V/T= 1.9989

 **********************************************************************

            Population analysis using the SCF Density.

 **********************************************************************

 Orbital symmetries:
       Occupied  (A) (A) (A) (A) (A) (A) (A) (A) (A) (A) (A) (A)
                 (A) (A) (A) (A) (A) (A) (A) (A) (A) (A) (A) (A)
                 (A) (A) (A) (A) (A) (A) (A) (A) (A) (A) (A) (A)
                 (A) (A) (A) (A) (A) (A) (A) (A) (A) (A) (A) (A)
                 (A) (A) (A) (A) (A) (A) (A) (A) (A) (A) (A) (A)
       Virtual   (A) (A) (A) (A) (A) (A) (A) (A) (A) (A) (A) (A)
                 (A) (A) (A) (A) (A) (A) (A) (A) (A) (A) (A) (A)
                 (A) (A) (A) (A) (A) (A) (A) (A) (A) (A) (A) (A)
                 (A) (A) (A) (A) (A) (A) (A) (A) (A) (A) (A) (A)
                 (A) (A) (A) (A) (A) (A) (A) (A) (A) (A) (A) (A)
                 (A) (A) (A) (A) (A) (A) (A) (A) (A) (A) (A) (A)
                 (A) (A) (A) (A) (A) (A) (A) (A) (A) (A) (A) (A)
                 (A) (A) (A) (A) (A) (A) (A) (A) (A) (A) (A) (A)
                 (A) (A) (A) (A) (A) (A) (A) (A) (A) (A) (A) (A)
                 (A) (A) (A) (A) (A) (A) (A) (A) (A) (A) (A) (A)
                 (A) (A) (A) (A) (A) (A) (A) (A) (A) (A) (A) (A)
                 (A) (A) (A) (A) (A) (A) (A) (A) (A) (A) (A) (A)
                 (A) (A) (A) (A) (A) (A) (A) (A) (A) (A) (A) (A)
                 (A) (A) (A) (A) (A) (A) (A) (A) (A) (A) (A) (A)
                 (A) (A) (A) (A) (A) (A) (A) (A) (A) (A) (A) (A)
                 (A) (A) (A) (A) (A) (A) (A) (A) (A) (A) (A) (A)
                 (A) (A) (A) (A) (A) (A) (A) (A) (A) (A) (A) (A)
                 (A) (A) (A) (A) (A) (A) (A) (A) (A) (A) (A) (A)
                 (A) (A) (A) (A) (A) (A) (A) (A) (A) (A) (A) (A)
                 (A) (A) (A) (A) (A) (A) (A) (A) (A) (A) (A) (A)
                 (A) (A) (A) (A) (A) (A) (A) (A) (A) (A) (A) (A)
                 (A) (A) (A) (A) (A) (A) (A) (A) (A) (A) (A) (A)
                 (A) (A) (A) (A) (A) (A) (A) (A) (A) (A) (A) (A)
                 (A) (A) (A) (A) (A) (A) (A) (A) (A) (A) (A) (A)
                 (A) (A) (A) (A) (A) (A) (A) (A) (A)
 The electronic state is 1-A.
 Alpha  occ. eigenvalues -- -102.64430-102.64430-102.63877 -25.26124 -19.64634
 Alpha  occ. eigenvalues --  -10.62514 -10.61707 -10.52703 -10.52702 -10.52553
 Alpha  occ. eigenvalues --  -10.52541 -10.51903  -9.80954  -9.80953  -9.80365
 Alpha  occ. eigenvalues --   -7.53674  -7.53674  -7.53087  -7.52498  -7.52498
 Alpha  occ. eigenvalues --   -7.52491  -7.52491  -7.51910  -7.51909  -1.36740
 Alpha  occ. eigenvalues --   -1.19725  -1.03707  -1.03614  -1.03383  -1.02828
 Alpha  occ. eigenvalues --   -0.89718  -0.88898  -0.76172  -0.74365  -0.72851
 Alpha  occ. eigenvalues --   -0.67033  -0.61493  -0.60209  -0.59657  -0.59135
 Alpha  occ. eigenvalues --   -0.57941  -0.57896  -0.56327  -0.54620  -0.54096
 Alpha  occ. eigenvalues --   -0.53176  -0.50803  -0.48163  -0.48101  -0.45199
 Alpha  occ. eigenvalues --   -0.43272  -0.40477  -0.40472  -0.40137  -0.39823
 Alpha  occ. eigenvalues --   -0.39803  -0.39642  -0.35720  -0.34006  -0.33159
 Alpha virt. eigenvalues --   -0.01631  -0.00418   0.00142   0.01194   0.01716
 Alpha virt. eigenvalues --    0.01937   0.02300   0.02970   0.03292   0.03650
 Alpha virt. eigenvalues --    0.04125   0.05232   0.05848   0.06576   0.06626
 Alpha virt. eigenvalues --    0.07111   0.07355   0.09047   0.09483   0.09966
 Alpha virt. eigenvalues --    0.10279   0.10356   0.10879   0.11527   0.11785
 Alpha virt. eigenvalues --    0.11908   0.12479   0.13410   0.13446   0.13823
 Alpha virt. eigenvalues --    0.13927   0.14245   0.14673   0.14885   0.16296
 Alpha virt. eigenvalues --    0.16493   0.16738   0.17060   0.17065   0.17377
 Alpha virt. eigenvalues --    0.17667   0.18194   0.18959   0.19964   0.20763
 Alpha virt. eigenvalues --    0.20801   0.21156   0.21820   0.21827   0.22594
 Alpha virt. eigenvalues --    0.23619   0.23802   0.24536   0.24911   0.25311
 Alpha virt. eigenvalues --    0.26454   0.27727   0.28114   0.29323   0.30835
 Alpha virt. eigenvalues --    0.31195   0.31972   0.33291   0.33383   0.34268
 Alpha virt. eigenvalues --    0.35069   0.35311   0.36384   0.38265   0.39754
 Alpha virt. eigenvalues --    0.39838   0.40758   0.42484   0.43396   0.43768
 Alpha virt. eigenvalues --    0.45037   0.45779   0.48738   0.50224   0.50452
 Alpha virt. eigenvalues --    0.51726   0.52022   0.52295   0.53355   0.53437
 Alpha virt. eigenvalues --    0.54628   0.55265   0.56631   0.57325   0.58366
 Alpha virt. eigenvalues --    0.59347   0.59738   0.61542   0.61593   0.62320
 Alpha virt. eigenvalues --    0.63343   0.63733   0.64654   0.65415   0.66841
 Alpha virt. eigenvalues --    0.67145   0.68081   0.68482   0.70064   0.70309
 Alpha virt. eigenvalues --    0.72506   0.72635   0.75411   0.76500   0.78533
 Alpha virt. eigenvalues --    0.78671   0.80485   0.80972   0.82006   0.82218
 Alpha virt. eigenvalues --    0.84044   0.85103   0.85967   0.86086   0.88511
 Alpha virt. eigenvalues --    0.89275   0.90427   0.91340   0.94150   0.94810
 Alpha virt. eigenvalues --    0.97140   0.97308   0.98519   0.98582   1.00379
 Alpha virt. eigenvalues --    1.00610   1.01373   1.02975   1.05674   1.06133
 Alpha virt. eigenvalues --    1.07073   1.07603   1.08040   1.11531   1.13242
 Alpha virt. eigenvalues --    1.15992   1.16767   1.17395   1.18054   1.18293
 Alpha virt. eigenvalues --    1.22447   1.22859   1.24638   1.28951   1.31681
 Alpha virt. eigenvalues --    1.32811   1.34190   1.36526   1.38612   1.39227
 Alpha virt. eigenvalues --    1.43720   1.51021   1.52870   1.53395   1.56484
 Alpha virt. eigenvalues --    1.58432   1.61914   1.62196   1.65765   1.66249
 Alpha virt. eigenvalues --    1.67370   1.68005   1.69556   1.71722   1.72150
 Alpha virt. eigenvalues --    1.74496   1.76632   1.77943   1.81173   1.81452
 Alpha virt. eigenvalues --    1.81906   1.84275   1.85297   1.86148   1.87461
 Alpha virt. eigenvalues --    1.87510   1.89097   1.90132   1.93918   1.94311
 Alpha virt. eigenvalues --    1.96079   1.99668   2.04319   2.04354   2.05669
 Alpha virt. eigenvalues --    2.05777   2.07977   2.13076   2.16276   2.16810
 Alpha virt. eigenvalues --    2.17423   2.18778   2.20374   2.20970   2.21848
 Alpha virt. eigenvalues --    2.23925   2.25612   2.30147   2.31026   2.31485
 Alpha virt. eigenvalues --    2.33727   2.34568   2.36439   2.36473   2.36992
 Alpha virt. eigenvalues --    2.38377   2.43624   2.44645   2.47103   2.48618
 Alpha virt. eigenvalues --    2.50682   2.51892   2.58348   2.64500   2.65924
 Alpha virt. eigenvalues --    2.70553   2.70834   2.74017   2.77140   2.77953
 Alpha virt. eigenvalues --    2.78583   2.78760   2.80854   2.86084   2.86191
 Alpha virt. eigenvalues --    2.88988   2.90335   2.90355   2.96131   2.98495
 Alpha virt. eigenvalues --    3.00669   3.02807   3.08585   3.11796   3.24620
 Alpha virt. eigenvalues --    3.27168   3.35261   3.39572   3.42747   3.45968
 Alpha virt. eigenvalues --    3.46290   3.50729   3.54599   3.59193   3.61922
 Alpha virt. eigenvalues --    3.64710   3.75542   3.75575   3.86846   3.90081
 Alpha virt. eigenvalues --    3.98359   3.99356   4.04121   4.09297   4.14027
 Alpha virt. eigenvalues --    4.17462   4.19005   4.26001   4.26375   4.36331
 Alpha virt. eigenvalues --    4.95304   4.95799   5.11680   5.23229   5.83247
 Alpha virt. eigenvalues --    6.54803   6.65243   6.91363  10.31841  10.32265
 Alpha virt. eigenvalues --   10.41253  23.73752  24.17083  24.26782  24.31520
 Alpha virt. eigenvalues --   24.53967  24.57158  24.72725  25.94941  25.95373
 Alpha virt. eigenvalues --   25.95867  26.04014  26.11891  26.13474  27.14343
 Alpha virt. eigenvalues --   27.14591  27.18065  50.06696  66.97188 216.52704
 Alpha virt. eigenvalues --  216.53132 216.65473
          Condensed to atoms (all electrons):
               1          2          3          4          5          6
     1  C   16.003672  -2.326953  -2.868480   0.467244  -2.873782  -2.337979
     2  C   -2.326953  17.014093   1.786116  -0.800211  -0.584915  -8.954427
     3  C   -2.868480   1.786116   8.106168   0.105159  -0.811406  -0.584828
     4  C    0.467244  -0.800211   0.105159   7.018001   0.107604  -0.797113
     5  C   -2.873782  -0.584915  -0.811406   0.107604   8.108796   1.785016
     6  C   -2.337979  -8.954427  -0.584828  -0.797113   1.785016  17.021292
     7  F    0.511861  -0.273823  -0.011834  -0.016676  -0.012164  -0.274316
     8  H   -0.332253  -0.439658  -0.121464  -0.112095   0.431881   0.358688
     9  H    0.047305   0.049366   0.459651  -0.104659  -0.096219   0.026693
    10  H    0.042537  -0.015074  -0.072604   0.486472  -0.072602  -0.014862
    11  H    0.048027   0.026819  -0.096366  -0.104505   0.459025   0.049221
    12  H   -0.335760   0.357426   0.432228  -0.112504  -0.118205  -0.438469
    13  O    0.043548  -0.016934  -0.000680  -0.002033  -0.000674  -0.016941
    14  C   -0.006725   0.001919   0.001644  -0.000267   0.001660   0.001988
    15  H    0.006101  -0.002126  -0.000981   0.000329  -0.000989  -0.002169
    16  H   -0.004464   0.001521   0.000535  -0.000020   0.000540   0.001547
    17  H   -0.006704  -0.018177  -0.023761   0.045479  -0.023701  -0.018932
    18  Cl   0.018504   0.017455   0.017973  -0.046544   0.017949   0.018131
    19  H   -0.042425   0.476006   0.022610   0.039461  -0.097052  -0.208362
    20  Cl   0.100264  -0.430705  -0.018966  -0.024879   0.051713   0.053787
    21  H   -0.040159  -0.206931  -0.096950   0.039509   0.021241   0.473771
    22  Cl   0.097928   0.052710   0.051617  -0.024763  -0.017709  -0.428574
               7          8          9         10         11         12
     1  C    0.511861  -0.332253   0.047305   0.042537   0.048027  -0.335760
     2  C   -0.273823  -0.439658   0.049366  -0.015074   0.026819   0.357426
     3  C   -0.011834  -0.121464   0.459651  -0.072604  -0.096366   0.432228
     4  C   -0.016676  -0.112095  -0.104659   0.486472  -0.104505  -0.112504
     5  C   -0.012164   0.431881  -0.096219  -0.072602   0.459025  -0.118205
     6  C   -0.274316   0.358688   0.026693  -0.014862   0.049221  -0.438469
     7  F    9.265539   0.019162  -0.002637   0.001219  -0.002624   0.019032
     8  H    0.019162   1.351244  -0.111643  -0.005867   0.009533  -0.026783
     9  H   -0.002637  -0.111643   0.532047  -0.014682  -0.002080   0.009556
    10  H    0.001219  -0.005867  -0.014682   0.523521  -0.014689  -0.005853
    11  H   -0.002624   0.009533  -0.002080  -0.014689   0.532081  -0.111806
    12  H    0.019032  -0.026783   0.009556  -0.005853  -0.111806   1.352508
    13  O    0.008681   0.001364   0.000056  -0.000010   0.000058   0.001330
    14  C    0.002056   0.003846  -0.000104   0.000016  -0.000106   0.003857
    15  H   -0.000284  -0.001330   0.000009   0.000003   0.000010  -0.001345
    16  H   -0.000270   0.000233   0.000002  -0.000004   0.000001   0.000251
    17  H    0.000872  -0.001563  -0.001918  -0.000227  -0.001877  -0.001979
    18  Cl   0.002100   0.002919   0.002073   0.000185   0.002052   0.003166
    19  H   -0.015417  -0.317041   0.017580   0.000986  -0.000685   0.004136
    20  Cl   0.014774   0.341198  -0.015366  -0.000801   0.000386   0.000055
    21  H   -0.015361   0.004029  -0.000679   0.000984   0.017637  -0.317593
    22  Cl   0.014734   0.000102   0.000384  -0.000800  -0.015380   0.341356
              13         14         15         16         17         18
     1  C    0.043548  -0.006725   0.006101  -0.004464  -0.006704   0.018504
     2  C   -0.016934   0.001919  -0.002126   0.001521  -0.018177   0.017455
     3  C   -0.000680   0.001644  -0.000981   0.000535  -0.023761   0.017973
     4  C   -0.002033  -0.000267   0.000329  -0.000020   0.045479  -0.046544
     5  C   -0.000674   0.001660  -0.000989   0.000540  -0.023701   0.017949
     6  C   -0.016941   0.001988  -0.002169   0.001547  -0.018932   0.018131
     7  F    0.008681   0.002056  -0.000284  -0.000270   0.000872   0.002100
     8  H    0.001364   0.003846  -0.001330   0.000233  -0.001563   0.002919
     9  H    0.000056  -0.000104   0.000009   0.000002  -0.001918   0.002073
    10  H   -0.000010   0.000016   0.000003  -0.000004  -0.000227   0.000185
    11  H    0.000058  -0.000106   0.000010   0.000001  -0.001877   0.002052
    12  H    0.001330   0.003857  -0.001345   0.000251  -0.001979   0.003166
    13  O    8.158858   0.272062  -0.089008  -0.093424   0.007712  -0.005116
    14  C    0.272062   4.854047   0.396886   0.399100  -0.006824  -0.001324
    15  H   -0.089008   0.396886   0.744837  -0.163599   0.002647   0.002436
    16  H   -0.093424   0.399100  -0.163599   0.749757  -0.000016  -0.000573
    17  H    0.007712  -0.006824   0.002647  -0.000016   0.825466   0.076544
    18  Cl  -0.005116  -0.001324   0.002436  -0.000573   0.076544  16.974726
    19  H    0.008564  -0.006800   0.002274  -0.001794   0.014419  -0.003220
    20  Cl  -0.005399   0.002486  -0.001125   0.001403  -0.005194   0.000153
    21  H    0.008550  -0.006717   0.002317  -0.001856   0.014487  -0.003237
    22  Cl  -0.005411   0.002485  -0.001147   0.001431  -0.005215   0.000153
              19         20         21         22
     1  C   -0.042425   0.100264  -0.040159   0.097928
     2  C    0.476006  -0.430705  -0.206931   0.052710
     3  C    0.022610  -0.018966  -0.096950   0.051617
     4  C    0.039461  -0.024879   0.039509  -0.024763
     5  C   -0.097052   0.051713   0.021241  -0.017709
     6  C   -0.208362   0.053787   0.473771  -0.428574
     7  F   -0.015417   0.014774  -0.015361   0.014734
     8  H   -0.317041   0.341198   0.004029   0.000102
     9  H    0.017580  -0.015366  -0.000679   0.000384
    10  H    0.000986  -0.000801   0.000984  -0.000800
    11  H   -0.000685   0.000386   0.017637  -0.015380
    12  H    0.004136   0.000055  -0.317593   0.341356
    13  O    0.008564  -0.005399   0.008550  -0.005411
    14  C   -0.006800   0.002486  -0.006717   0.002485
    15  H    0.002274  -0.001125   0.002317  -0.001147
    16  H   -0.001794   0.001403  -0.001856   0.001431
    17  H    0.014419  -0.005194   0.014487  -0.005215
    18  Cl  -0.003220   0.000153  -0.003237   0.000153
    19  H    1.091509  -0.105871   0.002046  -0.002193
    20  Cl  -0.105871  17.129855  -0.002168   0.002741
    21  H    0.002046  -0.002168   1.092123  -0.106318
    22  Cl  -0.002193   0.002741  -0.106318  17.130261
 Mulliken charges:
               1
     1  C   -0.211307
     2  C    0.286504
     3  C   -0.275380
     4  C   -0.162988
     5  C   -0.276006
     6  C    0.286838
     7  F   -0.234626
     8  H   -0.054499
     9  H    0.205265
    10  H    0.162151
    11  H    0.205268
    12  H   -0.054603
    13  O   -0.275153
    14  C    0.084816
    15  H    0.106253
    16  H    0.109702
    17  H    0.128460
    18  Cl  -0.096505
    19  H    0.121268
    20  Cl  -0.088343
    21  H    0.121276
    22  Cl  -0.088391
 Sum of Mulliken charges =  -0.00000
 Mulliken charges with hydrogens summed into heavy atoms:
               1
     1  C   -0.211307
     2  C    0.232004
     3  C   -0.070115
     4  C   -0.000837
     5  C   -0.070739
     6  C    0.232235
     7  F   -0.234626
    13  O   -0.275153
    14  C    0.300771
    18  Cl   0.031956
    20  Cl   0.032925
    22  Cl   0.032885
 Electronic spatial extent (au):  <R**2>=           4148.8192
 Charge=              0.0000 electrons
 Dipole moment (field-independent basis, Debye):
    X=              0.8502    Y=             -0.0056    Z=             -0.1350  Tot=              0.8609
 Quadrupole moment (field-independent basis, Debye-Ang):
   XX=            -63.0087   YY=            -92.5320   ZZ=           -100.1194
   XY=              0.0116   XZ=              0.0288   YZ=             -0.0007
 Traceless Quadrupole moment (field-independent basis, Debye-Ang):
   XX=             22.2114   YY=             -7.3120   ZZ=            -14.8994
   XY=              0.0116   XZ=              0.0288   YZ=             -0.0007
 Octapole moment (field-independent basis, Debye-Ang**2):
  XXX=            110.6467  YYY=             -0.0469  ZZZ=             -6.9174  XYY=             -6.6962
  XXY=              0.0228  XXZ=             -0.1774  XZZ=             13.8783  YZZ=              0.0130
  YYZ=              5.3691  XYZ=             -0.0111
 Hexadecapole moment (field-independent basis, Debye-Ang**3):
 XXXX=          -1855.3395 YYYY=          -1478.5056 ZZZZ=          -1296.8321 XXXY=              0.1295
 XXXZ=              0.1964 YYYX=              0.0274 YYYZ=              0.0541 ZZZX=             -8.6145
 ZZZY=             -0.0260 XXYY=           -655.0213 XXZZ=           -666.6804 YYZZ=           -470.7145
 XXYZ=             -0.0334 YYXZ=              8.4928 ZZXY=             -0.0532
 N-N= 9.805257082673D+02 E-N=-6.295720710981D+03  KE= 1.829750893511D+03
 Calling FoFJK, ICntrl=      2127 FMM=F ISym2X=0 I1Cent= 0 IOpClX= 0 NMat=1 NMatS=1 NMatT=0.
 ***** Axes restored to original set *****
 -------------------------------------------------------------------
 Center     Atomic                   Forces (Hartrees/Bohr)
 Number     Number              X              Y              Z
 -------------------------------------------------------------------
      1        6          -0.083328256    0.000188956   -0.048106937
      2        6          -0.052249149    0.001994604    0.015285240
      3        6           0.002738494    0.000073700    0.036416349
      4        6           0.038661968   -0.000393055    0.022321156
      5        6           0.032910482    0.000073634   -0.015829050
      6        6          -0.012879101    0.001994697   -0.052893959
      7        9           0.021157464   -0.000049876    0.012217586
      8        1          -0.061123814    0.002450735    0.036121305
      9        1          -0.001818585    0.000134432    0.073775301
     10        1           0.064340624   -0.000009824    0.037147284
     11        1           0.062981055    0.000134415   -0.038463781
     12        1           0.000718270    0.002450038   -0.070996355
     13        8           0.011937274    0.000043288    0.006865031
     14        6           0.066982932    0.000010257    0.039021236
     15        1          -0.039358359    0.072348244   -0.022886413
     16        1          -0.039374420   -0.072324356   -0.022896469
     17        1          -0.117046714   -0.758885460   -0.067584612
     18       17           0.116263107    0.757784558    0.067130467
     19        1           0.211297968    0.378481207   -0.636348120
     20       17          -0.217939090   -0.382492379    0.634564187
     21        1          -0.445500528    0.378478517    0.501107647
     22       17           0.440628379   -0.382486334   -0.505967093
 -------------------------------------------------------------------
 Cartesian Forces:  Max     0.758885460 RMS     0.234610714
 -----------------------------------------------------------------------------------------------
                       Internal Coordinate Forces (Hartree/Bohr or radian)
  Cent   Atom   N1       Length/X         N2         Alpha/Y        N3         Beta/Z          J
 -----------------------------------------------------------------------------------------------
      1  C 
      2  C        1   0.043362(     1)
      3  C        2   0.158729(     2)      1   0.183180(    22)
      4  C        3   0.221073(     3)      2   0.432494(    23)      1   0.015150(    42)     0
      5  C        4   0.177705(     4)      3   0.450899(    24)      2   0.019591(    43)     0
      6  C        5   0.071998(     5)      4   0.244523(    25)      3   0.009692(    44)     0
      7  F        1  -0.010448(     6)      2   0.000114(    26)      3   0.005027(    45)     0
      8  H        2   0.070995(     7)      3  -0.001361(    27)      4   0.004011(    46)     0
      9  H        3   0.073775(     8)      4   0.003437(    28)      5   0.000220(    47)     0
     10  H        4   0.074294(     9)      5   0.000000(    29)      6  -0.000016(    48)     0
     11  H        5   0.073775(    10)      6  -0.003439(    30)      1   0.000220(    49)     0
     12  H        6   0.070996(    11)      1   0.001357(    31)      2   0.004010(    50)     0
     13  O        7  -0.000214(    12)      1  -0.000025(    32)      3  -0.000001(    51)     0
     14  C       13   0.013556(    13)      1   0.000103(    33)      2  -0.000000(    52)     0
     15  H       14   0.085420(    14)      1   0.006151(    34)      2   0.000115(    53)     0
     16  H       14   0.085409(    15)      1   0.006204(    35)      2  -0.000116(    54)     0
     17  H        7  -0.000927(    16)      1   0.003645(    36)      2  -0.000002(    55)     0
     18  Cl      17   0.769585(    17)      7  -0.001062(    37)      1  -0.000003(    56)     0
     19  H        7   0.004643(    18)      1   0.035373(    38)      2  -0.014400(    57)     0
     20  Cl      19   0.772291(    19)      7   0.009612(    39)      1  -0.001157(    58)     0
     21  H        7   0.004640(    20)      1   0.035276(    40)      2   0.014406(    59)     0
     22  Cl      21   0.772280(    21)      7   0.009487(    41)      1   0.001161(    60)     0
 -----------------------------------------------------------------------------------------------
 Internal  Forces:  Max     0.772291188 RMS     0.201118625

 GradGradGradGradGradGradGradGradGradGradGradGradGradGradGradGradGradGrad
 Berny optimization.
 Search for a local minimum.
 Step number   1 out of a maximum of   29
 All quantities printed in internal units (Hartrees-Bohrs-Radians)
 Second derivative matrix not updated -- first step.
 The second derivative matrix:
                          d1        d2        d3        d4        d5
           d1           0.95300
           d2          -0.05489   0.95300
           d3          -0.33597   0.33597   1.34386
           d4          -0.28107   0.05489   0.33597   0.95300
           d5           0.05489  -0.28107  -0.33597  -0.05489   0.95300
           d6           0.00000   0.00000  -0.00000  -0.00000  -0.00000
           d7           0.00000  -0.00000  -0.00000  -0.00000  -0.00000
           d8          -0.00000  -0.00000   0.00000   0.00000   0.00000
           d9           0.00000   0.00000   0.00000  -0.00000  -0.00000
           d10          0.00000   0.00000   0.00000  -0.00000  -0.00000
           d11          0.00000  -0.00000  -0.00000   0.00000  -0.00000
           d12         -0.00000  -0.00000  -0.00000   0.00000   0.00000
           d13         -0.00000  -0.00000  -0.00000   0.00000   0.00000
           d14         -0.00000  -0.00000  -0.00000   0.00000   0.00000
           d15          0.00000   0.00000  -0.00000  -0.00000  -0.00000
           d16         -0.00000  -0.00000  -0.00000   0.00000   0.00000
           d17         -0.00000  -0.00000   0.00000   0.00000   0.00000
           d18         -0.00000  -0.00000  -0.00000   0.00000   0.00000
           d19         -0.00000  -0.00000  -0.00000   0.00000   0.00000
                          d6        d7        d8        d9        d10
           d6           0.45621
           d7          -0.00000   0.47688
           d8          -0.00000   0.00000   0.47688
           d9          -0.00000  -0.00000   0.00000   0.47688
           d10         -0.00000  -0.00000  -0.00000   0.00000   0.47688
           d11          0.00000  -0.00000   0.00000  -0.00000   0.00000
           d12         -0.00000   0.00000   0.00000   0.00000   0.00000
           d13         -0.00000   0.00000   0.00000   0.00000   0.00000
           d14          0.00000   0.00000   0.00000   0.00000   0.00000
           d15          0.00000  -0.00000  -0.00000  -0.00000  -0.00000
           d16          0.00000  -0.00000   0.00000   0.00000   0.00000
           d17          0.00000  -0.00000   0.00000   0.00000   0.00000
           d18         -0.00000   0.00000   0.00000   0.00000   0.00000
           d19          0.00000   0.00000   0.00000   0.00000   0.00000
                          d11       d12       d13       d14       d15
           d11          0.47688
           d12         -0.00000   0.02330
           d13         -0.00000  -0.00000   1.04823
           d14         -0.00000   0.00000  -0.00000   0.47688
           d15          0.00000   0.00000   0.00000   0.00000   0.47688
           d16         -0.00000   0.00000  -0.00000  -0.00000   0.00000
           d17         -0.00000   0.00000   0.00000  -0.00000   0.00000
           d18         -0.00000  -0.00000   0.00000   0.00000  -0.00000
           d19         -0.00000   0.00000   0.00000   0.00000  -0.00000
                          d16       d17       d18       d19
           d16          0.02721
           d17         -0.00000   1.53817
           d18         -0.00000   0.00000   0.05442
           d19          0.00000   0.00000  -0.00000   3.07635
 ITU=  0
     Eigenvalues ---    0.02330   0.02721   0.05442   0.45621   0.47688
     Eigenvalues ---    0.47688   0.47688   0.47688   0.47688   0.47688
     Eigenvalues ---    0.47688   0.67193   0.67193   0.67193   1.04823
     Eigenvalues ---    1.12429   1.53817   2.01579   3.07635
 RFO step:  Lambda=-9.21916585D-01 EMin= 2.33007068D-02
 Linear search not attempted -- first point.
 Maximum step size (   0.300) exceeded in Quadratic search.
    -- Step size scaled by   0.550
 Variable       Old X    -DE/DX   Delta X   Delta X   Delta X     New X
                                 (Linear)    (Quad)   (Total)
    d1        2.45664   0.04336   0.00000   0.02897   0.02897   2.48561
    d2        2.45664   0.15873   0.00000   0.04261   0.04261   2.49926
    d3        2.45664   0.22107   0.00000   0.05013   0.05013   2.50678
    d4        2.45664   0.17770   0.00000   0.04735   0.04735   2.50399
    d5        2.45664   0.07200   0.00000   0.03704   0.03704   2.49368
    d6        2.64562  -0.01045   0.00000  -0.00417  -0.00417   2.64145
    d7        1.88973   0.07100   0.00000   0.02793   0.02793   1.91765
    d8        1.88973   0.07378   0.00000   0.02902   0.02902   1.91875
    d9        1.88973   0.07429   0.00000   0.02922   0.02922   1.91895
   d10        1.88973   0.07378   0.00000   0.02902   0.02902   1.91875
   d11        1.88973   0.07100   0.00000   0.02793   0.02793   1.91765
   d12        5.29123  -0.00021   0.00000  -0.00012  -0.00012   5.29111
   d13        2.26767   0.01356   0.00000   0.00379   0.00379   2.27146
   d14        1.88973   0.08542   0.00000   0.03360   0.03360   1.92333
   d15        1.88973   0.08541   0.00000   0.03359   0.03359   1.92332
   d16        4.34637  -0.00093   0.00000  -0.00054  -0.00054   4.34583
   d17        1.70075   0.76958   0.00000   0.17212   0.17212   1.87287
   d18        4.34637   0.00928   0.00000   0.00523   0.00523   4.35160
   d19        1.70075   1.54457   0.00000   0.21255   0.21255   1.91330
         Item               Value     Threshold  Converged?
 Maximum Force            1.544571     0.000450     NO 
 RMS     Force            0.406016     0.000300     NO 
 Maximum Displacement     0.212551     0.001800     NO 
 RMS     Displacement     0.068825     0.001200     NO 
 Predicted change in Energy=-4.091871D-01
 GradGradGradGradGradGradGradGradGradGradGradGradGradGradGradGradGradGrad

 ---------------------------------------------------------------------------------------------------
                            Z-MATRIX (ANGSTROMS AND DEGREES)
   CD    Cent   Atom    N1       Length/X        N2       Alpha/Y        N3        Beta/Z          J
 ---------------------------------------------------------------------------------------------------
      1      1  C 
      2      2  C        1   1.315330(     1)
      3      3  C        2   1.322549(     2)      1  120.000(    22)
      4      4  C        3   1.326529(     3)      2  120.000(    23)      1    0.000(    42)      0
      5      5  C        4   1.325054(     4)      3  120.000(    24)      2    0.000(    43)      0
      6      6  C        5   1.319599(     5)      4  120.000(    25)      3    0.000(    44)      0
      7      7  F        1   1.397793(     6)      2  120.000(    26)      3  180.000(    45)      0
      8      8  H        2   1.014778(     7)      3  120.000(    27)      4  180.000(    46)      0
      9      9  H        3   1.015356(     8)      4  120.000(    28)      5  180.000(    47)      0
     10     10  H        4   1.015464(     9)      5  120.000(    29)      6  180.000(    48)      0
     11     11  H        5   1.015356(    10)      6  120.000(    30)      1  180.000(    49)      0
     12     12  H        6   1.014778(    11)      1  120.000(    31)      2  180.000(    50)      0
     13     13  O        7   2.799934(    12)      1  179.900(    32)      3  180.000(    51)      0
     14     14  C       13   1.202003(    13)      1  179.900(    33)      2  180.000(    52)      0
     15     15  H       14   1.017780(    14)      1  120.000(    34)      2   90.000(    53)      0
     16     16  H       14   1.017778(    15)      1  120.000(    35)      2  -90.000(    54)      0
     17     17  H        7   2.299716(    16)      1  100.000(    36)      2   90.000(    55)      0
     18     18  Cl      17   0.991082(    17)      7  160.000(    37)      1    0.000(    56)      0
     19     19  H        7   2.302768(    18)      1  100.000(    38)      2  -30.000(    57)      0
     20     20  Cl      19   1.012477(    19)      7  160.000(    39)      1    0.000(    58)      0
     21     21  H        7   2.302768(    20)      1  100.000(    40)      2 -150.000(    59)      0
     22     22  Cl      21   1.012477(    21)      7  160.000(    41)      1    0.000(    60)      0
 ---------------------------------------------------------------------------------------------------
                         Z-Matrix orientation:                         
 ---------------------------------------------------------------------
 Center     Atomic      Atomic             Coordinates (Angstroms)
 Number     Number       Type             X           Y           Z
 ---------------------------------------------------------------------
      1          6           0        0.000000    0.000000    0.000000
      2          6           0        0.000000    0.000000    1.315330
      3          6           0        1.145361    0.000000    1.976604
      4          6           0        2.294169    0.000000    1.313340
      5          6           0        2.294169    0.000000   -0.011714
      6          6           0        1.151362    0.000000   -0.671514
      7          9           0       -1.210524   -0.000000   -0.698896
      8          1           0       -0.878823   -0.000000    1.822718
      9          1           0        1.145361   -0.000000    2.991960
     10          1           0        3.173587   -0.000000    1.821072
     11          1           0        3.173493   -0.000000   -0.519392
     12          1           0        1.146895   -0.000000   -1.686282
     13          8           0       -3.632891   -0.000000   -2.103093
     14          6           0       -4.672103   -0.000000   -2.707121
     15          1           0       -5.112420    0.881423   -2.962250
     16          1           0       -5.112419   -0.881421   -2.962250
     17          1           0       -1.556364    2.264778   -0.898567
     18         17           0       -1.407321    3.240803   -0.812517
     19          1           0       -2.538802   -1.133892    0.802006
     20         17           0       -2.818297   -1.632440    1.637735
     21          1           0       -0.574844   -1.133892   -2.599670
     22         17           0        0.009172   -1.632440   -3.259584
 ---------------------------------------------------------------------
                    Distance matrix (angstroms):
                    1          2          3          4          5
     1  C    0.000000
     2  C    1.315330   0.000000
     3  C    2.284473   1.322549   0.000000
     4  C    2.643496   2.294170   1.326529   0.000000
     5  C    2.294199   2.650332   2.296338   1.325054   0.000000
     6  C    1.332879   2.296341   2.648125   2.290339   1.319599
     7  F    1.397793   2.349995   3.564898   4.041283   3.571427
     8  H    2.023520   1.014778   2.030025   3.213619   3.665109
     9  H    3.203698   2.030503   1.015356   2.034091   3.215870
    10  H    3.658955   3.213632   2.034180   1.015464   2.032850
    11  H    3.215716   3.665687   3.216103   2.032761   1.015356
    12  H    2.039342   3.213260   3.662886   3.211536   2.029880
    13  O    4.197725   4.988338   6.282963   6.841203   6.285213
    14  C    5.399727   6.165117   7.468613   8.043199   7.469549
    15  H    5.973999   6.723945   8.020537   8.597391   8.021229
    16  H    5.973998   6.723943   8.020535   8.597389   8.021228
    17  H    2.891178   3.528856   4.549192   4.984812   4.554375
    18  Cl   3.625403   4.124450   4.979778   5.359394   4.984488
    19  H    2.893863   2.827495   4.029696   4.990469   5.030453
    20  Cl   3.645522   3.272859   4.300032   5.376560   5.614522
    21  H    2.893863   4.116234   5.018675   4.982829   4.026718
    22  Cl   3.645522   4.857446   5.601201   5.366349   4.293569
                    6          7          8          9         10
     6  C    0.000000
     7  F    2.362045   0.000000
     8  H    3.216030   2.543338   0.000000
     9  H    3.663479   4.378655   2.337616   0.000000
    10  H    3.209731   5.056745   4.052410   2.341939   0.000000
    11  H    2.027845   4.387691   4.680465   4.054987   2.340464
    12  H    1.014778   2.555848   4.051743   4.678243   4.050803
    13  O    4.993846   2.799934   4.795507   6.985074   7.856667
    14  C    6.168991   4.001937   5.908335   8.143858   9.058664
    15  H    6.727506   4.596136   6.449509   8.682704   9.608068
    16  H    6.727505   4.596134   6.449508   8.682703   9.608067
    17  H    3.537309   2.299716   3.604674   5.250213   5.907460
    18  Cl   4.131531   3.248761   4.210295   5.611866   6.198654
    19  H    4.132104   2.302768   2.254572   4.433359   5.912326
    20  Cl   4.873981   3.272559   2.541778   4.495483   6.212982
    21  H    2.825471   2.302768   4.575548   5.959123   5.905878
    22  Cl   3.266124   3.272559   5.411395   6.560305   6.204148
                   11         12         13         14         15
    11  H    0.000000
    12  H    2.338532   0.000000
    13  O    6.988202   4.797926   0.000000
    14  C    8.144909   5.907864   1.202003   0.000000
    15  H    8.683364   6.448568   1.924594   1.017780   0.000000
    16  H    8.683363   6.448566   1.924592   1.017778   1.762845
    17  H    5.257807   3.613492   3.300313   4.255340   4.337971
    18  Cl   5.618949   4.217854   4.137820   4.975051   4.890376
    19  H    5.971777   4.589298   3.304897   4.260359   4.985441
    20  Cl   6.574162   5.425560   4.161997   4.997923   5.722095
    21  H    4.434331   2.254856   3.299084   4.252622   4.978208
    22  Cl   4.492933   2.536643   4.155352   4.988428   5.713021
                   16         17         18         19         20
    16  H    0.000000
    17  H    5.177150   0.000000
    18  Cl   5.944900   0.991082   0.000000
    19  H    4.566931   3.925314   4.798426   0.000000
    20  Cl   5.194890   4.818050   5.634100   1.012477   0.000000
    21  H    4.559034   3.925314   4.798426   3.927917   4.820502
    22  Cl   5.184894   4.818050   5.634100   4.820502   5.654937
                   21         22
    21  H    0.000000
    22  Cl   1.012477   0.000000
 Stoichiometry    C7H10Cl3FO
 Framework group  C1[X(C7H10Cl3FO)]
 Deg. of freedom    60
 Full point group                 C1      NOp   1
 Largest Abelian subgroup         C1      NOp   1
 Largest concise Abelian subgroup C1      NOp   1
                         Standard orientation:                         
 ---------------------------------------------------------------------
 Center     Atomic      Atomic             Coordinates (Angstroms)
 Number     Number       Type             X           Y           Z
 ---------------------------------------------------------------------
      1          6           0       -1.017163    0.005662    0.003146
      2          6           0       -1.672472    1.146128    0.002989
      3          6           0       -2.995018    1.148862    0.002612
      4          6           0       -3.660656    0.001427    0.002391
      5          6           0       -3.000502   -1.147470    0.002549
      6          6           0       -1.680906   -1.150198    0.002926
      7          9           0        0.380627    0.002772    0.003545
      8          1           0       -1.163267    2.023900    0.003158
      9          1           0       -3.500877    2.029234    0.002491
     10          1           0       -4.676118    0.003527    0.002102
     11          1           0       -3.509997   -2.025743    0.002380
     12          1           0       -1.171467   -2.027834    0.003048
     13          8           0        3.180540   -0.007903    0.004343
     14          6           0        4.382529   -0.013885    0.004686
     15          1           0        4.891164   -0.015750    0.886254
     16          1           0        4.891666   -0.015703   -0.876590
     17          1           0        0.779321    0.001886    2.268436
     18         17           0        0.606943    0.002216    3.244413
     19          1           0        0.784881    1.965930   -1.130180
     20         17           0        0.610994    2.829815   -1.628754
     21          1           0        0.776761   -1.961979   -1.130287
     22         17           0        0.599304   -2.825110   -1.628908
 ---------------------------------------------------------------------
 Rotational constants (GHZ):           0.4177706           0.3255430           0.3088765
 Standard basis: 6-311++G(d,p) (5D, 7F)
 There are   370 symmetry adapted cartesian basis functions of A   symmetry.
 There are   358 symmetry adapted basis functions of A   symmetry.
   358 basis functions,   573 primitive gaussians,   370 cartesian basis functions
    60 alpha electrons       60 beta electrons
       nuclear repulsion energy       960.8886732962 Hartrees.
 NAtoms=   22 NActive=   22 NUniq=   22 SFac= 1.00D+00 NAtFMM=   60 NAOKFM=F Big=F
 Integral buffers will be    131072 words long.
 Raffenetti 2 integral format.
 Two-electron integral symmetry is turned on.
 One-electron integrals computed using PRISM.
 NBasis=   358 RedAO= T EigKep=  3.41D-06  NBF=   358
 NBsUse=   357 1.00D-06 EigRej=  4.26D-07 NBFU=   357
 Initial guess from the checkpoint file:  "model_H3.chk"
 B after Tr=    -0.000000   -0.000000   -0.000000
         Rot=    0.999999   -0.000013   -0.000117    0.001491 Ang=  -0.17 deg.
 ExpMin= 3.60D-02 ExpMax= 1.06D+05 ExpMxC= 3.62D+03 IAcc=3 IRadAn=         5 AccDes= 0.00D+00
 Harris functional with IExCor= 1009 and IRadAn=       5 diagonalized for initial guess.
 HarFok:  IExCor= 1009 AccDes= 0.00D+00 IRadAn=         5 IDoV= 1 UseB2=F ITyADJ=14
 ICtDFT=  3500011 ScaDFX=  1.000000  1.000000  1.000000  1.000000
 FoFCou: FMM=F IPFlag=           0 FMFlag=      100000 FMFlg1=           0
         NFxFlg=           0 DoJE=T BraDBF=F KetDBF=T FulRan=T
         wScrn=  0.000000 ICntrl=       500 IOpCl=  0 I1Cent=   200000004 NGrid=           0
         NMat0=    1 NMatS0=      1 NMatT0=    0 NMatD0=    1 NMtDS0=    0 NMtDT0=    0
 Petite list used in FoFCou.
 Requested convergence on RMS density matrix=1.00D-08 within 128 cycles.
 Requested convergence on MAX density matrix=1.00D-06.
 Requested convergence on             energy=1.00D-06.
 No special actions if energy rises.
 SCF Done:  E(RM062X) =  -1828.03451523     A.U. after   13 cycles
            NFock= 13  Conv=0.32D-08     -V/T= 2.0002
 Calling FoFJK, ICntrl=      2127 FMM=F ISym2X=0 I1Cent= 0 IOpClX= 0 NMat=1 NMatS=1 NMatT=0.
 ***** Axes restored to original set *****
 -------------------------------------------------------------------
 Center     Atomic                   Forces (Hartrees/Bohr)
 Number     Number              X              Y              Z
 -------------------------------------------------------------------
      1        6          -0.047859347    0.000157214   -0.046513531
      2        6          -0.035825189    0.001755181    0.013313698
      3        6           0.009115750    0.000058280    0.016842310
      4        6           0.018208236   -0.000342210    0.014649360
      5        6           0.019361916    0.000066108   -0.004088951
      6        6          -0.023106008    0.001799820   -0.029256891
      7        9           0.021245493   -0.000141701    0.012140071
      8        1          -0.047983711    0.002144912    0.028494134
      9        1          -0.001571964    0.000109831    0.057322532
     10        1           0.049923606   -0.000006967    0.028950497
     11        1           0.048927801    0.000116143   -0.030089909
     12        1           0.000253329    0.002185774   -0.055553158
     13        8           0.007100875    0.000050958    0.004059847
     14        6           0.056173615    0.000015352    0.032762540
     15        1          -0.031518308    0.056116022   -0.018342505
     16        1          -0.031538174   -0.056094615   -0.018354624
     17        1          -0.066502200   -0.427611370   -0.038408812
     18       17           0.065752288    0.426207996    0.037970111
     19        1           0.102643033    0.184260683   -0.311603754
     20       17          -0.108175640   -0.187508953    0.309557459
     21        1          -0.218569961    0.184274714    0.244662134
     22       17           0.213944557   -0.187613171   -0.248512558
 -------------------------------------------------------------------
 Cartesian Forces:  Max     0.427611370 RMS     0.122062687
 -----------------------------------------------------------------------------------------------
                       Internal Coordinate Forces (Hartree/Bohr or radian)
  Cent   Atom   N1       Length/X         N2         Alpha/Y        N3         Beta/Z          J
 -----------------------------------------------------------------------------------------------
      1  C 
      2  C        1   0.040911(     1)
      3  C        2   0.104604(     2)      1   0.093405(    22)
      4  C        3   0.136050(     3)      2   0.248244(    23)      1   0.013930(    42)     0
      5  C        4   0.118661(     4)      3   0.265596(    24)      2   0.017819(    43)     0
      6  C        5   0.061867(     5)      4   0.151133(    25)      3   0.008790(    44)     0
      7  F        1  -0.012106(     6)      2  -0.000141(    26)      3   0.005224(    45)     0
      8  H        2   0.055802(     7)      3  -0.001313(    27)      4   0.003562(    46)     0
      9  H        3   0.057323(     8)      4   0.003016(    28)      5   0.000183(    47)     0
     10  H        4   0.057710(     9)      5   0.000211(    29)      6  -0.000012(    48)     0
     11  H        5   0.057418(    10)      6  -0.003060(    30)      1   0.000193(    49)     0
     12  H        6   0.055552(    11)      1   0.000955(    31)      2   0.003630(    50)     0
     13  O        7  -0.000251(    12)      1  -0.000008(    32)      3  -0.000001(    51)     0
     14  C       13   0.007928(    13)      1   0.000100(    33)      2  -0.000000(    52)     0
     15  H       14   0.066831(    14)      1   0.006777(    34)      2   0.000115(    53)     0
     16  H       14   0.066825(    15)      1   0.006836(    35)      2  -0.000116(    54)     0
     17  H        7  -0.001231(    16)      1   0.003346(    36)      2   0.000008(    55)     0
     18  Cl      17   0.432918(    17)      7  -0.001432(    37)      1  -0.000004(    56)     0
     19  H        7   0.003457(    18)      1   0.031769(    38)      2  -0.012377(    57)     0
     20  Cl      19   0.377710(    19)      7   0.008729(    39)      1  -0.000852(    58)     0
     21  H        7   0.003545(    20)      1   0.032371(    40)      2   0.012806(    59)     0
     22  Cl      21   0.377764(    21)      7   0.008884(    41)      1   0.000905(    60)     0
 -----------------------------------------------------------------------------------------------
 Internal  Forces:  Max     0.432917734 RMS     0.109097355

 GradGradGradGradGradGradGradGradGradGradGradGradGradGradGradGradGradGrad
 Berny optimization.
 Search for a local minimum.
 Step number   2 out of a maximum of   29
 All quantities printed in internal units (Hartrees-Bohrs-Radians)
 Update second derivatives using D2CorN and points    1    2
 DE= -3.77D-01 DEPred=-4.09D-01 R= 9.21D-01
 TightC=F SS=  1.41D+00  RLast= 3.00D-01 DXNew= 5.0454D-01 9.0000D-01
 Trust test= 9.21D-01 RLast= 3.00D-01 DXMaxT set to 5.05D-01
 The second derivative matrix:
                          d1        d2        d3        d4        d5
           d1           0.95471
           d2          -0.05266   0.95588
           d3          -0.33294   0.33993   1.34921
           d4          -0.27889   0.05766   0.33986   0.95559
           d5           0.05674  -0.27872  -0.33269  -0.05266   0.95492
           d6           0.00045   0.00070   0.00077   0.00082   0.00062
           d7           0.00112   0.00139   0.00201   0.00126   0.00111
           d8           0.00128   0.00160   0.00228   0.00148   0.00129
           d9           0.00129   0.00161   0.00230   0.00149   0.00130
           d10          0.00126   0.00158   0.00225   0.00146   0.00127
           d11          0.00116   0.00145   0.00208   0.00132   0.00116
           d12          0.00000   0.00001   0.00000   0.00001   0.00001
           d13          0.00038   0.00052   0.00066   0.00054   0.00044
           d14          0.00140   0.00174   0.00251   0.00159   0.00140
           d15          0.00140   0.00174   0.00251   0.00159   0.00140
           d16          0.00004   0.00006   0.00006   0.00007   0.00005
           d17          0.01664   0.02283   0.02921   0.02362   0.01926
           d18          0.00048   0.00065   0.00084   0.00067   0.00055
           d19          0.02802   0.03918   0.04900   0.04137   0.03333
                          d6        d7        d8        d9        d10
           d6           0.45604
           d7           0.00051   0.47747
           d8           0.00051   0.00071   0.47773
           d9           0.00052   0.00072   0.00085   0.47774
           d10          0.00052   0.00069   0.00083   0.00084   0.47770
           d11          0.00050   0.00062   0.00075   0.00076   0.00073
           d12         -0.00000   0.00000   0.00000   0.00000   0.00000
           d13          0.00004   0.00030   0.00032   0.00033   0.00032
           d14          0.00061   0.00075   0.00090   0.00091   0.00088
           d15          0.00061   0.00075   0.00090   0.00091   0.00088
           d16         -0.00002   0.00004   0.00004   0.00004   0.00004
           d17          0.00174   0.01295   0.01409   0.01421   0.01400
           d18          0.00006   0.00036   0.00040   0.00040   0.00039
           d19          0.00107   0.02319   0.02489   0.02508   0.02477
                          d11       d12       d13       d14       d15
           d11          0.47754
           d12          0.00000   0.02330
           d13          0.00030  -0.00000   1.04830
           d14          0.00080   0.00001   0.00036   0.47784
           d15          0.00079   0.00001   0.00036   0.00096   0.47784
           d16          0.00004  -0.00000   0.00000   0.00005   0.00005
           d17          0.01319  -0.00001   0.00310   0.01588   0.01587
           d18          0.00037  -0.00000   0.00009   0.00045   0.00045
           d19          0.02349  -0.00005   0.00480   0.02827   0.02826
                          d16       d17       d18       d19
           d16          0.02721
           d17          0.00009   1.67571
           d18          0.00000   0.00400   0.05453
           d19         -0.00003   0.21422   0.00629   3.39568
 ITU=  1  0
 Linear search step of   0.600 exceeds DXMaxT=   0.505 but not scaled.
 Quartic linear search produced a step of  2.00000.
 Variable       Old X    -DE/DX   Delta X   Delta X   Delta X     New X
                                 (Linear)    (Quad)   (Total)
    d1        2.48561   0.04091   0.05794   0.00000   0.05794   2.54355
    d2        2.49926   0.10460   0.08522   0.00000   0.08522   2.58448
    d3        2.50678   0.13605   0.10027   0.00000   0.10027   2.60704
    d4        2.50399   0.11866   0.09469   0.00000   0.09469   2.59868
    d5        2.49368   0.06187   0.07408   0.00000   0.07408   2.56776
    d6        2.64145  -0.01211  -0.00834   0.00000  -0.00834   2.63310
    d7        1.91765   0.05580   0.05585   0.00000   0.05585   1.97350
    d8        1.91875   0.05732   0.05804   0.00000   0.05804   1.97678
    d9        1.91895   0.05771   0.05845   0.00000   0.05845   1.97740
   d10        1.91875   0.05742   0.05804   0.00000   0.05804   1.97678
   d11        1.91765   0.05555   0.05585   0.00000   0.05585   1.97350
   d12        5.29111  -0.00025  -0.00025   0.00000  -0.00025   5.29086
   d13        2.27146   0.00793   0.00757   0.00000   0.00757   2.27903
   d14        1.92333   0.06683   0.06720   0.00000   0.06720   1.99052
   d15        1.92332   0.06682   0.06719   0.00000   0.06719   1.99051
   d16        4.34583  -0.00123  -0.00107   0.00000  -0.00107   4.34476
   d17        1.87287   0.43292   0.34424   0.00000   0.34424   2.21712
   d18        4.35160   0.00700   0.01046   0.00000   0.01046   4.36206
   d19        1.91330   0.75547   0.42510   0.00000   0.42510   2.33841
         Item               Value     Threshold  Converged?
 Maximum Force            0.755475     0.000450     NO 
 RMS     Force            0.209322     0.000300     NO 
 Maximum Displacement     0.425103     0.001800     NO 
 RMS     Displacement     0.137649     0.001200     NO 
 Predicted change in Energy=-5.829779D-02
 GradGradGradGradGradGradGradGradGradGradGradGradGradGradGradGradGradGrad

 ---------------------------------------------------------------------------------------------------
                            Z-MATRIX (ANGSTROMS AND DEGREES)
   CD    Cent   Atom    N1       Length/X        N2       Alpha/Y        N3        Beta/Z          J
 ---------------------------------------------------------------------------------------------------
      1      1  C 
      2      2  C        1   1.345989(     1)
      3      3  C        2   1.367647(     2)      1  120.000(    22)
      4      4  C        3   1.379588(     3)      2  120.000(    23)      1    0.000(    42)      0
      5      5  C        4   1.375162(     4)      3  120.000(    24)      2    0.000(    43)      0
      6      6  C        5   1.358798(     5)      4  120.000(    25)      3    0.000(    44)      0
      7      7  F        1   1.393378(     6)      2  120.000(    26)      3  180.000(    45)      0
      8      8  H        2   1.044333(     7)      3  120.000(    27)      4  180.000(    46)      0
      9      9  H        3   1.046069(     8)      4  120.000(    28)      5  180.000(    47)      0
     10     10  H        4   1.046393(     9)      5  120.000(    29)      6  180.000(    48)      0
     11     11  H        5   1.046068(    10)      6  120.000(    30)      1  180.000(    49)      0
     12     12  H        6   1.044333(    11)      1  120.000(    31)      2  180.000(    50)      0
     13     13  O        7   2.799802(    12)      1  179.900(    32)      3  180.000(    51)      0
     14     14  C       13   1.206010(    13)      1  179.900(    33)      2  180.000(    52)      0
     15     15  H       14   1.053340(    14)      1  120.000(    34)      2   90.000(    53)      0
     16     16  H       14   1.053333(    15)      1  120.000(    35)      2  -90.000(    54)      0
     17     17  H        7   2.299147(    16)      1  100.000(    36)      2   90.000(    55)      0
     18     18  Cl      17   1.173247(    17)      7  160.000(    37)      1    0.000(    56)      0
     19     19  H        7   2.308305(    18)      1  100.000(    38)      2  -30.000(    57)      0
     20     20  Cl      19   1.237432(    19)      7  160.000(    39)      1    0.000(    58)      0
     21     21  H        7   2.308305(    20)      1  100.000(    40)      2 -150.000(    59)      0
     22     22  Cl      21   1.237432(    21)      7  160.000(    41)      1    0.000(    60)      0
 ---------------------------------------------------------------------------------------------------
                         Z-Matrix orientation:                         
 ---------------------------------------------------------------------
 Center     Atomic      Atomic             Coordinates (Angstroms)
 Number     Number       Type             X           Y           Z
 ---------------------------------------------------------------------
      1          6           0        0.000000    0.000000    0.000000
      2          6           0        0.000000    0.000000    1.345989
      3          6           0        1.184417    0.000000    2.029812
      4          6           0        2.379175    0.000000    1.340019
      5          6           0        2.379175    0.000000   -0.035143
      6          6           0        1.202421    0.000000   -0.714542
      7          9           0       -1.206701   -0.000000   -0.696689
      8          1           0       -0.904419   -0.000000    1.868155
      9          1           0        1.184417   -0.000000    3.075881
     10          1           0        3.285377   -0.000000    1.863215
     11          1           0        3.285097   -0.000000   -0.558177
     12          1           0        1.189279   -0.000000   -1.758793
     13          8           0       -3.628954   -0.000000   -2.100820
     14          6           0       -4.671630   -0.000000   -2.706863
     15          1           0       -5.127329    0.912219   -2.970907
     16          1           0       -5.127326   -0.912213   -2.970905
     17          1           0       -1.552455    2.264218   -0.896310
     18         17           0       -1.376018    3.419640   -0.794444
     19          1           0       -2.538173   -1.136618    0.807822
     20         17           0       -2.879766   -1.745935    1.829235
     21          1           0       -0.569492   -1.136618   -2.602033
     22         17           0        0.144281   -1.745935   -3.408569
 ---------------------------------------------------------------------
                    Distance matrix (angstroms):
                    1          2          3          4          5
     1  C    0.000000
     2  C    1.345989   0.000000
     3  C    2.350103   1.367647   0.000000
     4  C    2.730590   2.379182   1.379588   0.000000
     5  C    2.379434   2.751000   2.385684   1.375162   0.000000
     6  C    1.398709   2.385708   2.744414   2.367693   1.358798
     7  F    1.393378   2.372480   3.626466   4.123916   3.646388
     8  H    2.075567   1.044333   2.095082   3.325795   3.795330
     9  H    3.296041   2.096514   1.046069   2.107288   3.332554
    10  H    3.776940   3.325842   2.107555   1.046393   2.103560
    11  H    3.332180   3.797066   3.333249   2.103293   1.046068
    12  H    2.123143   3.324764   3.788608   3.319410   2.094474
    13  O    4.193179   5.004977   6.342765   6.923654   6.353317
    14  C    5.399188   6.184637   7.531890   8.129643   7.540022
    15  H    5.995660   6.764410   8.104164   8.704242   8.111625
    16  H    5.995655   6.764405   8.104160   8.704238   8.111621
    17  H    2.887936   3.544673   4.602102   5.058218   4.618009
    18  Cl   3.770744   4.262490   5.121152   5.509206   5.135363
    19  H    2.895997   2.832639   4.079563   5.074982   5.116913
    20  Cl   3.832420   3.402186   4.427878   5.562741   5.846423
    21  H    2.895997   4.147662   5.081544   5.052357   4.071297
    22  Cl   3.832420   5.067043   5.805701   5.531014   4.407158
                    6          7          8          9         10
     6  C    0.000000
     7  F    2.409188   0.000000
     8  H    3.333032   2.582596   0.000000
     9  H    3.790466   4.466512   2.412848   0.000000
    10  H    3.314143   5.170288   4.189799   2.425818   0.000000
    11  H    2.088537   4.493933   4.841397   4.197527   2.421392
    12  H    1.044333   2.620837   4.187878   4.834676   4.184802
    13  O    5.026325   2.799802   4.814131   7.068718   7.970041
    14  C    6.202726   4.005812   5.926438   8.230031   9.176033
    15  H    6.781523   4.623368   6.487036   8.788283   9.745487
    16  H    6.781519   4.623364   6.487032   8.788279   9.745483
    17  H    3.570583   2.299147   3.631653   5.328739   6.012178
    18  Cl   4.283535   3.425225   4.359562   5.764476   6.362838
    19  H    4.195418   2.308305   2.255074   4.504849   6.026566
    20  Cl   5.116966   3.496817   2.636627   4.595650   6.407686
    21  H    2.827401   2.308305   4.624571   6.050356   6.007525
    22  Cl   3.380196   3.496817   5.656136   6.795459   6.380163
                   11         12         13         14         15
    11  H    0.000000
    12  H    2.415353   0.000000
    13  O    7.084055   4.830357   0.000000
    14  C    8.241744   5.937094   1.206010   0.000000
    15  H    8.798995   6.496222   1.958143   1.053340   0.000000
    16  H    8.798991   6.496218   1.958137   1.053333   1.824432
    17  H    5.351909   3.658916   3.299905   4.258407   4.348744
    18  Cl   5.785823   4.382312   4.298404   5.119799   5.009639
    19  H    6.088376   4.666188   3.307854   4.265741   5.017993
    20  Cl   6.837658   5.699067   4.365192   5.180275   5.929476
    21  H    4.508559   2.257483   3.302033   4.257983   5.010757
    22  Cl   4.586692   2.619555   4.358416   5.170462   5.920068
                   16         17         18         19         20
    16  H    0.000000
    17  H    5.212807   0.000000
    18  Cl   6.129784   1.173247   0.000000
    19  H    4.586158   3.929554   4.967631   0.000000
    20  Cl   5.365441   5.027094   5.985659   1.237432   0.000000
    21  H    4.578239   3.929554   4.967631   3.937361   5.034359
    22  Cl   5.355043   5.027094   5.985659   5.034359   6.048095
                   21         22
    21  H    0.000000
    22  Cl   1.237432   0.000000
 Stoichiometry    C7H10Cl3FO
 Framework group  C1[X(C7H10Cl3FO)]
 Deg. of freedom    60
 Full point group                 C1      NOp   1
 Largest Abelian subgroup         C1      NOp   1
 Largest concise Abelian subgroup C1      NOp   1
[...]
      4          6           0       -3.714128    0.000546   -0.083159
      5          6           0       -3.019196   -1.206690   -0.056045
      6          6           0       -1.624265   -1.208024   -0.001243
      7          9           0        0.415916    0.002872    0.079095
      8          1           0       -1.095835    2.136366    0.020034
      9          1           0       -3.560104    2.138880   -0.076777
     10          1           0       -4.796306    0.001581   -0.125674
     11          1           0       -3.560899   -2.143612   -0.077471
     12          1           0       -1.069695   -2.136273    0.020400
     13          8           0        3.130193   -0.004465    0.185728
     14          6           0        4.329985   -0.009102    0.232863
     15          1           0        4.843467   -0.010636    1.208825
     16          1           0        4.918503   -0.010341   -0.699892
     17          1           0        0.693714    0.002216    2.120255
     18         17           0        0.421011    0.002234    3.376269
     19          1           0        0.897190    2.122225   -1.126352
     20         17           0        0.700185    3.218015   -1.766885
     21          1           0        0.893168   -2.116927   -1.127166
     22         17           0        0.694084   -3.212095   -1.768120
 ---------------------------------------------------------------------
 Rotational constants (GHZ):           0.3491134           0.3133074           0.2799291

 **********************************************************************

            Population analysis using the SCF Density.

 **********************************************************************

 Orbital symmetries:
       Occupied  (A) (A) (A) (A) (A) (A) (A) (A) (A) (A) (A) (A)
                 (A) (A) (A) (A) (A) (A) (A) (A) (A) (A) (A) (A)
                 (A) (A) (A) (A) (A) (A) (A) (A) (A) (A) (A) (A)
                 (A) (A) (A) (A) (A) (A) (A) (A) (A) (A) (A) (A)
                 (A) (A) (A) (A) (A) (A) (A) (A) (A) (A) (A) (A)
       Virtual   (A) (A) (A) (A) (A) (A) (A) (A) (A) (A) (A) (A)
                 (A) (A) (A) (A) (A) (A) (A) (A) (A) (A) (A) (A)
                 (A) (A) (A) (A) (A) (A) (A) (A) (A) (A) (A) (A)
                 (A) (A) (A) (A) (A) (A) (A) (A) (A) (A) (A) (A)
                 (A) (A) (A) (A) (A) (A) (A) (A) (A) (A) (A) (A)
                 (A) (A) (A) (A) (A) (A) (A) (A) (A) (A) (A) (A)
                 (A) (A) (A) (A) (A) (A) (A) (A) (A) (A) (A) (A)
                 (A) (A) (A) (A) (A) (A) (A) (A) (A) (A) (A) (A)
                 (A) (A) (A) (A) (A) (A) (A) (A) (A) (A) (A) (A)
                 (A) (A) (A) (A) (A) (A) (A) (A) (A) (A) (A) (A)
                 (A) (A) (A) (A) (A) (A) (A) (A) (A) (A) (A) (A)
                 (A) (A) (A) (A) (A) (A) (A) (A) (A) (A) (A) (A)
                 (A) (A) (A) (A) (A) (A) (A) (A) (A) (A) (A) (A)
                 (A) (A) (A) (A) (A) (A) (A) (A) (A) (A) (A) (A)
                 (A) (A) (A) (A) (A) (A) (A) (A) (A) (A) (A) (A)
                 (A) (A) (A) (A) (A) (A) (A) (A) (A) (A) (A) (A)
                 (A) (A) (A) (A) (A) (A) (A) (A) (A) (A) (A) (A)
                 (A) (A) (A) (A) (A) (A) (A) (A) (A) (A) (A) (A)
                 (A) (A) (A) (A) (A) (A) (A) (A) (A) (A) (A) (A)
                 (A) (A) (A) (A) (A) (A) (A) (A) (A) (A) (A) (A)
                 (A) (A) (A) (A) (A) (A) (A) (A) (A) (A) (A) (A)
                 (A) (A) (A) (A) (A) (A) (A) (A) (A) (A) (A) (A)
                 (A) (A) (A) (A) (A) (A) (A) (A) (A) (A) (A) (A)
                 (A) (A) (A) (A) (A) (A) (A) (A) (A) (A) (A) (A)
                 (A) (A) (A) (A) (A) (A) (A) (A) (A)
 The electronic state is 1-A.
 Alpha  occ. eigenvalues -- -102.67942-102.67930-102.66637 -25.28453 -19.65786
 Alpha  occ. eigenvalues --  -10.65291 -10.64761 -10.56724 -10.56646 -10.56528
 Alpha  occ. eigenvalues --  -10.56447 -10.55941  -9.82263  -9.82249  -9.80954
 Alpha  occ. eigenvalues --   -7.54764  -7.54751  -7.54114  -7.54108  -7.54101
 Alpha  occ. eigenvalues --   -7.54095  -7.53445  -7.52814  -7.52811  -1.39805
 Alpha  occ. eigenvalues --   -1.20611  -0.98806  -0.94286  -0.94261  -0.92943
 Alpha  occ. eigenvalues --   -0.87122  -0.86712  -0.73856  -0.72763  -0.72151
 Alpha  occ. eigenvalues --   -0.64960  -0.60377  -0.59772  -0.59758  -0.59228
 Alpha  occ. eigenvalues --   -0.55012  -0.53777  -0.53747  -0.52986  -0.51615
 Alpha  occ. eigenvalues --   -0.51357  -0.50596  -0.49011  -0.45557  -0.44826
 Alpha  occ. eigenvalues --   -0.42838  -0.39816  -0.39797  -0.39717  -0.39547
 Alpha  occ. eigenvalues --   -0.38612  -0.38608  -0.36069  -0.33024  -0.32265
 Alpha virt. eigenvalues --   -0.02278  -0.00888  -0.00198  -0.00080   0.00661
 Alpha virt. eigenvalues --    0.00895   0.01079   0.01627   0.02505   0.02930
 Alpha virt. eigenvalues --    0.03813   0.04867   0.05242   0.06097   0.06248
 Alpha virt. eigenvalues --    0.06552   0.07039   0.07390   0.08435   0.09216
 Alpha virt. eigenvalues --    0.09222   0.09437   0.10065   0.10209   0.10696
 Alpha virt. eigenvalues --    0.11062   0.11422   0.11459   0.11903   0.12186
 Alpha virt. eigenvalues --    0.13041   0.13092   0.13495   0.14034   0.14112
 Alpha virt. eigenvalues --    0.14982   0.15283   0.15313   0.15424   0.16063
 Alpha virt. eigenvalues --    0.16701   0.16870   0.17190   0.17261   0.18100
 Alpha virt. eigenvalues --    0.18825   0.19283   0.19523   0.20685   0.21255
 Alpha virt. eigenvalues --    0.22206   0.22409   0.23218   0.23580   0.23613
 Alpha virt. eigenvalues --    0.23804   0.25768   0.25977   0.26974   0.27844
 Alpha virt. eigenvalues --    0.28987   0.30220   0.30825   0.31028   0.31612
 Alpha virt. eigenvalues --    0.32267   0.33012   0.34599   0.36152   0.36979
 Alpha virt. eigenvalues --    0.38474   0.39774   0.40505   0.40852   0.42051
 Alpha virt. eigenvalues --    0.44216   0.45487   0.46271   0.48407   0.49428
 Alpha virt. eigenvalues --    0.50294   0.50359   0.51456   0.52551   0.53085
 Alpha virt. eigenvalues --    0.53395   0.53473   0.53701   0.54860   0.56122
 Alpha virt. eigenvalues --    0.56918   0.57553   0.57844   0.58517   0.58883
 Alpha virt. eigenvalues --    0.59484   0.60976   0.62034   0.62740   0.62985
 Alpha virt. eigenvalues --    0.63098   0.64120   0.67259   0.68432   0.69100
 Alpha virt. eigenvalues --    0.70613   0.72313   0.72406   0.74041   0.74981
 Alpha virt. eigenvalues --    0.76040   0.77356   0.77921   0.81634   0.83134
 Alpha virt. eigenvalues --    0.83575   0.84704   0.85134   0.85321   0.86889
 Alpha virt. eigenvalues --    0.87930   0.88926   0.90777   0.91534   0.91707
 Alpha virt. eigenvalues --    0.92946   0.93328   0.94727   0.95486   0.97014
 Alpha virt. eigenvalues --    0.98029   0.98127   0.99595   0.99966   1.00013
 Alpha virt. eigenvalues --    1.00931   1.04413   1.04798   1.05152   1.06697
 Alpha virt. eigenvalues --    1.07244   1.07601   1.08194   1.12376   1.14740
 Alpha virt. eigenvalues --    1.15533   1.16748   1.17330   1.18194   1.19810
 Alpha virt. eigenvalues --    1.22332   1.23865   1.28788   1.32889   1.33038
 Alpha virt. eigenvalues --    1.41702   1.43225   1.47115   1.47346   1.49307
 Alpha virt. eigenvalues --    1.52371   1.52460   1.53656   1.54408   1.55598
 Alpha virt. eigenvalues --    1.57487   1.57864   1.59372   1.60273   1.60651
 Alpha virt. eigenvalues --    1.60866   1.63322   1.64991   1.66209   1.68455
 Alpha virt. eigenvalues --    1.69952   1.70047   1.70924   1.76051   1.76216
 Alpha virt. eigenvalues --    1.77242   1.78384   1.80118   1.85867   1.86187
 Alpha virt. eigenvalues --    1.88234   1.91421   1.94356   1.94783   1.95859
 Alpha virt. eigenvalues --    1.98701   1.99423   2.01973   2.04817   2.06860
 Alpha virt. eigenvalues --    2.09629   2.09980   2.12067   2.16152   2.20522
 Alpha virt. eigenvalues --    2.25088   2.29017   2.30008   2.30399   2.30634
 Alpha virt. eigenvalues --    2.30989   2.32500   2.33610   2.34264   2.34791
 Alpha virt. eigenvalues --    2.36173   2.42525   2.43423   2.43603   2.44964
 Alpha virt. eigenvalues --    2.46738   2.48609   2.50696   2.51147   2.52146
 Alpha virt. eigenvalues --    2.52562   2.61727   2.63521   2.64579   2.65917
 Alpha virt. eigenvalues --    2.68517   2.69872   2.71587   2.72591   2.73480
 Alpha virt. eigenvalues --    2.74160   2.75222   2.76190   2.76566   2.85286
 Alpha virt. eigenvalues --    2.85412   2.86351   2.89137   2.93656   2.94537
 Alpha virt. eigenvalues --    2.95875   2.98355   2.98570   3.14033   3.19287
 Alpha virt. eigenvalues --    3.25596   3.38420   3.39434   3.42913   3.47853
 Alpha virt. eigenvalues --    3.53080   3.55289   3.55757   3.66277   3.72563
 Alpha virt. eigenvalues --    3.78788   3.86295   3.92427   4.02345   4.04112
 Alpha virt. eigenvalues --    4.05195   4.08508   4.15040   4.18573   4.20536
 Alpha virt. eigenvalues --    4.85533   4.93139   5.10498   5.20598   5.79697
 Alpha virt. eigenvalues --    6.53477   6.62772   6.89043   9.93777   9.94873
 Alpha virt. eigenvalues --   10.01772  23.68830  23.99384  24.01335  24.04849
 Alpha virt. eigenvalues --   24.15206  24.16855  24.27020  25.92011  25.93548
 Alpha virt. eigenvalues --   25.96507  26.02934  26.04042  26.05215  26.16145
 Alpha virt. eigenvalues --   26.20547  26.24509  50.04526  66.94000 216.03294
 Alpha virt. eigenvalues --  216.04415 216.12362
          Condensed to atoms (all electrons):
               1          2          3          4          5          6
     1  C   11.580140  -1.271474  -1.726401   0.108562  -1.560966  -1.099050
     2  C   -1.271474  12.362147   0.734242  -0.764667  -0.067029  -4.754970
     3  C   -1.726401   0.734242   7.041296   0.414186  -0.528340  -0.190659
     4  C    0.108562  -0.764667   0.414186   6.342490   0.398087  -0.656964
     5  C   -1.560966  -0.067029  -0.528340   0.398087   6.921607   0.598671
     6  C   -1.099050  -4.754970  -0.190659  -0.656964   0.598671  12.350385
     7  F    0.343200  -0.200195  -0.014382   0.002704  -0.012304  -0.195253
     8  H   -0.365367  -0.363212   0.184217   0.077570   0.227730   0.166482
     9  H    0.058017   0.078984   0.361472  -0.102966  -0.054759   0.009642
    10  H    0.033160  -0.004071  -0.061681   0.421779  -0.057658  -0.001867
    11  H    0.058934   0.012319  -0.056859  -0.101145   0.365509   0.071213
    12  H   -0.358911   0.161971   0.240243   0.072510   0.161956  -0.367577
    13  O    0.035197  -0.013856  -0.000157  -0.000663   0.000022  -0.012836
    14  C   -0.014055   0.003936   0.002183   0.000120   0.002189   0.004778
    15  H    0.003129  -0.001467  -0.000527   0.000106  -0.000525  -0.001638
    16  H   -0.002901   0.001141   0.000297   0.000004   0.000290   0.001150
    17  H    0.067935  -0.023764  -0.032500   0.026012  -0.032833  -0.026615
    18  Cl   0.082509  -0.015801   0.006044  -0.024529   0.007939  -0.014997
    19  H    0.047223   0.226915  -0.052654  -0.004626  -0.038616  -0.073383
    20  Cl   0.025228  -0.279566   0.058367   0.005716   0.018355   0.018916
    21  H    0.044573  -0.074937  -0.041926  -0.003446  -0.049310   0.235108
    22  Cl   0.030063   0.020942   0.019550   0.005290   0.053245  -0.288165
               7          8          9         10         11         12
     1  C    0.343200  -0.365367   0.058017   0.033160   0.058934  -0.358911
     2  C   -0.200195  -0.363212   0.078984  -0.004071   0.012319   0.161971
     3  C   -0.014382   0.184217   0.361472  -0.061681  -0.056859   0.240243
     4  C    0.002704   0.077570  -0.102966   0.421779  -0.101145   0.072510
     5  C   -0.012304   0.227730  -0.054759  -0.057658   0.365509   0.161956
     6  C   -0.195253   0.166482   0.009642  -0.001867   0.071213  -0.367577
     7  F    9.253126   0.001040  -0.001263   0.001076  -0.001279   0.000536
     8  H    0.001040   1.157868  -0.070708  -0.003981   0.004710  -0.028644
     9  H   -0.001263  -0.070708   0.493297  -0.007581  -0.000236   0.005014
    10  H    0.001076  -0.003981  -0.007581   0.501192  -0.007207  -0.004251
    11  H   -0.001279   0.004710  -0.000236  -0.007207   0.492719  -0.070979
    12  H    0.000536  -0.028644   0.005014  -0.004251  -0.070979   1.182051
    13  O    0.012413   0.000485   0.000028   0.000009   0.000028   0.000430
    14  C    0.001586   0.002928  -0.000083   0.000013  -0.000089   0.003223
    15  H   -0.000143  -0.000401  -0.000002  -0.000000  -0.000003  -0.000408
    16  H   -0.000378  -0.000091   0.000005  -0.000002   0.000005  -0.000094
    17  H   -0.011267  -0.008733  -0.000004  -0.000383   0.000119  -0.009974
    18  Cl  -0.002165   0.003977   0.000686   0.000283   0.000655   0.004309
    19  H   -0.013374  -0.190396   0.009335   0.000716  -0.000826   0.012580
    20  Cl  -0.000587   0.216619  -0.008683  -0.000469   0.000245  -0.003388
    21  H   -0.013374   0.012800  -0.000927   0.000746   0.009502  -0.198355
    22  Cl  -0.000550  -0.003430   0.000268  -0.000474  -0.008757   0.223430
              13         14         15         16         17         18
     1  C    0.035197  -0.014055   0.003129  -0.002901   0.067935   0.082509
     2  C   -0.013856   0.003936  -0.001467   0.001141  -0.023764  -0.015801
     3  C   -0.000157   0.002183  -0.000527   0.000297  -0.032500   0.006044
     4  C   -0.000663   0.000120   0.000106   0.000004   0.026012  -0.024529
     5  C    0.000022   0.002189  -0.000525   0.000290  -0.032833   0.007939
     6  C   -0.012836   0.004778  -0.001638   0.001150  -0.026615  -0.014997
     7  F    0.012413   0.001586  -0.000143  -0.000378  -0.011267  -0.002165
     8  H    0.000485   0.002928  -0.000401  -0.000091  -0.008733   0.003977
     9  H    0.000028  -0.000083  -0.000002   0.000005  -0.000004   0.000686
    10  H    0.000009   0.000013  -0.000000  -0.000002  -0.000383   0.000283
    11  H    0.000028  -0.000089  -0.000003   0.000005   0.000119   0.000655
    12  H    0.000430   0.003223  -0.000408  -0.000094  -0.009974   0.004309
    13  O    8.162736   0.225887  -0.087560  -0.094819   0.007279  -0.003472
    14  C    0.225887   4.971250   0.392870   0.397603  -0.009066  -0.001465
    15  H   -0.087560   0.392870   0.690036  -0.117466   0.003857   0.001269
    16  H   -0.094819   0.397603  -0.117466   0.694763  -0.000906  -0.000003
    17  H    0.007279  -0.009066   0.003857  -0.000906   0.665916   0.251104
    18  Cl  -0.003472  -0.001465   0.001269  -0.000003   0.251104  16.802570
    19  H    0.006581  -0.003052   0.000431  -0.000366   0.006385  -0.001671
    20  Cl  -0.002902   0.000535  -0.000185   0.000022  -0.001591  -0.000405
    21  H    0.006698  -0.003330   0.000452  -0.000402   0.006933  -0.001810
    22  Cl  -0.002949   0.000618  -0.000191   0.000028  -0.001760  -0.000374
              19         20         21         22
     1  C    0.047223   0.025228   0.044573   0.030063
     2  C    0.226915  -0.279566  -0.074937   0.020942
     3  C   -0.052654   0.058367  -0.041926   0.019550
     4  C   -0.004626   0.005716  -0.003446   0.005290
     5  C   -0.038616   0.018355  -0.049310   0.053245
     6  C   -0.073383   0.018916   0.235108  -0.288165
     7  F   -0.013374  -0.000587  -0.013374  -0.000550
     8  H   -0.190396   0.216619   0.012800  -0.003430
     9  H    0.009335  -0.008683  -0.000927   0.000268
    10  H    0.000716  -0.000469   0.000746  -0.000474
    11  H   -0.000826   0.000245   0.009502  -0.008757
    12  H    0.012580  -0.003388  -0.198355   0.223430
    13  O    0.006581  -0.002902   0.006698  -0.002949
    14  C   -0.003052   0.000535  -0.003330   0.000618
    15  H    0.000431  -0.000185   0.000452  -0.000191
    16  H   -0.000366   0.000022  -0.000402   0.000028
    17  H    0.006385  -0.001591   0.006933  -0.001760
    18  Cl  -0.001671  -0.000405  -0.001810  -0.000374
    19  H    0.737701   0.225072  -0.013900   0.003801
    20  Cl   0.225072  16.804144   0.003834  -0.000706
    21  H   -0.013900   0.003834   0.742823   0.223004
    22  Cl   0.003801  -0.000706   0.223004  16.804579
 Mulliken charges:
               1
     1  C   -0.118746
     2  C    0.232412
     3  C   -0.356010
     4  C   -0.216131
     5  C   -0.353257
     6  C    0.227632
     7  F   -0.149167
     8  H   -0.021463
     9  H    0.230463
    10  H    0.190650
    11  H    0.231420
    12  H   -0.025671
    13  O   -0.238580
    14  C    0.021421
    15  H    0.118366
    16  H    0.122121
    17  H    0.123855
    18  Cl  -0.094652
    19  H    0.116126
    20  Cl  -0.078571
    21  H    0.115245
    22  Cl  -0.077462
 Sum of Mulliken charges =  -0.00000
 Mulliken charges with hydrogens summed into heavy atoms:
               1
     1  C   -0.118746
     2  C    0.210949
     3  C   -0.125548
     4  C   -0.025481
     5  C   -0.121838
     6  C    0.201961
     7  F   -0.149167
    13  O   -0.238580
    14  C    0.261908
    18  Cl   0.029203
    20  Cl   0.037555
    22  Cl   0.037783
 Electronic spatial extent (au):  <R**2>=           4718.2195
 Charge=             -0.0000 electrons
 Dipole moment (field-independent basis, Debye):
    X=              1.0332    Y=             -0.0063    Z=             -0.2495  Tot=              1.0629
 Quadrupole moment (field-independent basis, Debye-Ang):
   XX=            -64.4210   YY=            -97.9726   ZZ=           -106.8027
   XY=             -0.1252   XZ=              1.5737   YZ=              0.0071
 Traceless Quadrupole moment (field-independent basis, Debye-Ang):
   XX=             25.3111   YY=             -8.2405   ZZ=            -17.0706
   XY=             -0.1252   XZ=              1.5737   YZ=              0.0071
 Octapole moment (field-independent basis, Debye-Ang**2):
  XXX=             98.5633  YYY=             -0.0698  ZZZ=            -11.1037  XYY=            -12.5550
  XXY=             -0.0956  XXZ=              4.3687  XZZ=             16.3936  YZZ=              0.0244
  YYZ=             12.2611  XYZ=             -0.0093
 Hexadecapole moment (field-independent basis, Debye-Ang**3):
 XXXX=          -1908.4101 YYYY=          -2041.9678 ZZZZ=          -1576.7059 XXXY=             -1.8166
 XXXZ=             38.5935 YYYX=             -0.4170 YYYZ=              0.2191 ZZZX=            -10.9726
 ZZZY=              0.0564 XXYY=           -752.4095 XXZZ=           -726.9423 YYZZ=           -612.7198
 XXYZ=             -0.0148 YYXZ=             16.1092 ZZXY=             -0.2375
 N-N= 9.138503676598D+02 E-N=-6.158530332390D+03  KE= 1.823869112817D+03
 1\1\GINC-R820\POpt\RM062X\6-311++G(d,p)\C7H10Cl3F1O1\ZJXU\28-Mar-2024\
 1\\# m062x 6-311++G(d,p) opt=z-matrix\\test\\0,1\C\C,1,d1\C,2,d2,1,120
 .\C,3,d3,2,120.,1,0.,0\C,4,d4,3,120.,2,0.,0\C,5,d5,4,120.,3,0.,0\F,1,d
 6,2,120.,3,180.,0\H,2,d7,3,120.,4,180.,0\H,3,d8,4,120.,5,180.,0\H,4,d9
 ,5,120.,6,180.,0\H,5,d10,6,120.,1,180.,0\H,6,d11,1,120.,2,180.,0\O,7,d
 12,1,179.9,3,180.,0\C,13,d13,1,179.9,2,180.,0\H,14,d14,1,120.,2,90.,0\
 H,14,d15,1,120.,2,-90.,0\H,7,d16,1,100.,2,90.,0\Cl,17,d17,7,160.,1,0.,
 0\H,7,d18,1,100.,2,-30.,0\Cl,19,d19,7,160.,1,0.,0\H,7,d18,1,100.,2,-15
 0.,0\Cl,21,d19,7,160.,1,0.,0\\d1=1.37951757\d2=1.38372145\d3=1.3867638
 4\d4=1.39322806\d5=1.3960071\d6=1.36636376\d7=1.082359\d8=1.08253966\d
 9=1.08301348\d10=1.08246205\d11=1.0815094\d12=2.71638059\d13=1.2007265
 5\d14=1.10279999\d15=1.10289884\d16=2.0599764\d17=1.2852776\d18=2.4852
 33\d19=1.28446476\\Version=ES64L-G16RevB.01\State=1-A\HF=-1828.3302854
 \RMSD=8.670e-09\RMSF=3.480e-03\Dipole=-0.3473627,-0.114045,-0.203008\Q
 uadrupole=12.5547775,-12.7348139,0.1800365,0.0563214,10.8547666,0.0416
 105\PG=C01 [X(C7H10Cl3F1O1)]\\@


 SEE YOU NOW,
 YOUR BAIT OF FALSEHOOD TAKES THIS CARP OF TRUTH.
 AND THUS DO WE OF WISDOM AND OF REACH...
 BY INDIRECTIONS FIND DIRECTIONS OUT.    -- HAMLET, II, 1
 Job cpu time:       0 days  5 hours  8 minutes 50.5 seconds.
 Elapsed time:       0 days  2 hours 34 minutes 28.3 seconds.
 File lengths (MBytes):  RWF=     81 Int=      0 D2E=      0 Chk=     10 Scr=      1
 Normal termination of Gaussian 16 at Thu Mar 28 12:45:58 2024.
