 Entering Gaussian System, Link 0=g16
 Input=model_H2b.gjf
 Output=model_H2b.log
 Initial command:
 /home/zjxu/prog/g16/l1.exe "/home/zjxu/zjhan/5_model/HCl/vacuum_new/Gau-33705.inp" -scrdir="/home/zjxu/zjhan/5_model/HCl/vacuum_new/"
 Entering Link 1 = /home/zjxu/prog/g16/l1.exe PID=     33706.
  
 Copyright (c) 1988-2017, Gaussian, Inc.  All Rights Reserved.
  
 This is part of the Gaussian(R) 16 program.  It is based on
 the Gaussian(R) 09 system (copyright 2009, Gaussian, Inc.),
 the Gaussian(R) 03 system (copyright 2003, Gaussian, Inc.),
 the Gaussian(R) 98 system (copyright 1998, Gaussian, Inc.),
 the Gaussian(R) 94 system (copyright 1995, Gaussian, Inc.),
 the Gaussian 92(TM) system (copyright 1992, Gaussian, Inc.),
 the Gaussian 90(TM) system (copyright 1990, Gaussian, Inc.),
 the Gaussian 88(TM) system (copyright 1988, Gaussian, Inc.),
 the Gaussian 86(TM) system (copyright 1986, Carnegie Mellon
 University), and the Gaussian 82(TM) system (copyright 1983,
 Carnegie Mellon University). Gaussian is a federally registered
 trademark of Gaussian, Inc.
  
 This software contains proprietary and confidential information,
 including trade secrets, belonging to Gaussian, Inc.
  
 This software is provided under written license and may be
 used, copied, transmitted, or stored only in accord with that
 written license.
  
 The following legend is applicable only to US Government
 contracts under FAR:
  
                    RESTRICTED RIGHTS LEGEND
  
 Use, reproduction and disclosure by the US Government is
 subject to restrictions as set forth in subparagraphs (a)
 and (c) of the Commercial Computer Software - Restricted
 Rights clause in FAR 52.227-19.
  
 Gaussian, Inc.
 340 Quinnipiac St., Bldg. 40, Wallingford CT 06492
  
  
 ---------------------------------------------------------------
 Warning -- This program may not be used in any manner that
 competes with the business of Gaussian, Inc. or will provide
 assistance to any competitor of Gaussian, Inc.  The licensee
 of this program is prohibited from giving any competitor of
 Gaussian, Inc. access to this program.  By using this program,
 the user acknowledges that Gaussian, Inc. is engaged in the
 business of creating and licensing software in the field of
 computational chemistry and represents and warrants to the
 licensee that it is not a competitor of Gaussian, Inc. and that
 it will not use this program in any manner prohibited above.
 ---------------------------------------------------------------
  

 Cite this work as:
 Gaussian 16, Revision B.01,
 M. J. Frisch, G. W. Trucks, H. B. Schlegel, G. E. Scuseria, 
 M. A. Robb, J. R. Cheeseman, G. Scalmani, V. Barone, 
 G. A. Petersson, H. Nakatsuji, X. Li, M. Caricato, A. V. Marenich, 
 J. Bloino, B. G. Janesko, R. Gomperts, B. Mennucci, H. P. Hratchian, 
 J. V. Ortiz, A. F. Izmaylov, J. L. Sonnenberg, D. Williams-Young, 
 F. Ding, F. Lipparini, F. Egidi, J. Goings, B. Peng, A. Petrone, 
 T. Henderson, D. Ranasinghe, V. G. Zakrzewski, J. Gao, N. Rega, 
 G. Zheng, W. Liang, M. Hada, M. Ehara, K. Toyota, R. Fukuda, 
 J. Hasegawa, M. Ishida, T. Nakajima, Y. Honda, O. Kitao, H. Nakai, 
 T. Vreven, K. Throssell, J. A. Montgomery, Jr., J. E. Peralta, 
 F. Ogliaro, M. J. Bearpark, J. J. Heyd, E. N. Brothers, K. N. Kudin, 
 V. N. Staroverov, T. A. Keith, R. Kobayashi, J. Normand, 
 K. Raghavachari, A. P. Rendell, J. C. Burant, S. S. Iyengar, 
 J. Tomasi, M. Cossi, J. M. Millam, M. Klene, C. Adamo, R. Cammi, 
 J. W. Ochterski, R. L. Martin, K. Morokuma, O. Farkas, 
 J. B. Foresman, and D. J. Fox, Gaussian, Inc., Wallingford CT, 2016.
 
 ******************************************
 Gaussian 16:  ES64L-G16RevB.01 20-Dec-2017
                28-Mar-2024 
 ******************************************
 %mem=2GB
 %nproc=2
 Will use up to    2 processors via shared memory.
 %chk=model_H2b
 ----------------------------------
 # m062x 6-311++G(d,p) opt=z-matrix
 ----------------------------------
 1/10=7,18=40,26=3,38=1/1,3;
 2/12=2,17=6,18=5,29=3,40=1/2;
 3/5=4,6=6,7=1111,11=2,25=1,30=1,71=1,74=-55/1,2,3;
 4//1;
 5/5=2,38=5/2;
 6/7=2,8=2,9=2,10=2,28=1/1;
 7/29=1/1,2,3,16;
 1/10=7,18=40,26=3/3(2);
 2/29=3/2;
 99//99;
 2/29=3/2;
 3/5=4,6=6,7=1111,11=2,25=1,30=1,71=1,74=-55/1,2,3;
 4/5=5,16=3,69=1/1;
 5/5=2,38=5/2;
 7//1,2,3,16;
 1/18=40,26=3/3(-5);
 2/29=3/2;
 6/7=2,8=2,9=2,10=2,19=2,28=1/1;
 99/9=1/99;
 ----
 test
 ----
 Symbolic Z-matrix:
 Charge =  0 Multiplicity = 1
 C1
 C2                   1    d1
 C3                   2    d2       1     120. 
 C4                   3    d3       2     120.     1     0.       0
 C5                   4    d4       3     120.     2     0.       0
 C6                   5    d5       4     120.     3     0.       0
 F7                   1    d6       2     120.     3     180.     0
 H8                   2    d7       3     120.     4     180.     0
 H9                   3    d8       4     120.     5     180.     0
 H10                  4    d9       5     120.     6     180.     0
 H11                  5    d10      6     120.     1     180.     0
 H12                  6    d11      1     120.     2     180.     0
 O13                  7    d12      1     179.9    3     180.     0
 C14                  13   d13      1     179.9    2     180.     0
 H15                  14   d14      1     120.     2     90.      0
 H16                  14   d15      1     120.     2    -90.      0
 H17                  7    d16      1     100.     2     90.      0
 Cl18                 17   d17      7     160.     1     0.       0
 H19                  7    d18      1     100.     2    -90.      0
 Cl20                 19   d19      7     160.     1     0.       0
       Variables:
  d1                    1.3                      
  d2                    1.3                      
  d3                    1.3                      
  d4                    1.3                      
  d5                    1.3                      
  d6                    1.4                      
  d7                    1.                       
  d8                    1.                       
  d9                    1.                       
  d10                   1.                       
  d11                   1.                       
  d12                   2.8                      
  d13                   1.2                      
  d14                   1.                       
  d15                   1.                       
  d16                   2.3                      
  d17                   0.9                      
  d18                   2.3                      
  d19                   0.9                      
 

 GradGradGradGradGradGradGradGradGradGradGradGradGradGradGradGradGradGrad
 Berny optimization.
 Initialization pass.
                       ----------------------------
                       !    Initial Parameters    !
                       ! (Angstroms and Degrees)  !
 ----------------------                            ----------------------
 !      Name          Value   Derivative information (Atomic Units)     !
 ------------------------------------------------------------------------
 !       d1          1.3      estimate D2E/DX2                          !
 !       d2          1.3      estimate D2E/DX2                          !
 !       d3          1.3      estimate D2E/DX2                          !
 !       d4          1.3      estimate D2E/DX2                          !
 !       d5          1.3      estimate D2E/DX2                          !
 !       d6          1.4      estimate D2E/DX2                          !
 !       d7          1.0      estimate D2E/DX2                          !
 !       d8          1.0      estimate D2E/DX2                          !
 !       d9          1.0      estimate D2E/DX2                          !
 !       d10         1.0      estimate D2E/DX2                          !
 !       d11         1.0      estimate D2E/DX2                          !
 !       d12         2.8      estimate D2E/DX2                          !
 !       d13         1.2      estimate D2E/DX2                          !
 !       d14         1.0      estimate D2E/DX2                          !
 !       d15         1.0      estimate D2E/DX2                          !
 !       d16         2.3      estimate D2E/DX2                          !
 !       d17         0.9      estimate D2E/DX2                          !
 !       d18         2.3      estimate D2E/DX2                          !
 !       d19         0.9      estimate D2E/DX2                          !
 ------------------------------------------------------------------------
 Trust Radius=3.00D-01 FncErr=1.00D-07 GrdErr=1.00D-06 EigMax=2.50D+02 EigMin=1.00D-04
 Number of steps in this run=     29 maximum allowed number of steps=    100.
 GradGradGradGradGradGradGradGradGradGradGradGradGradGradGradGradGradGrad

 ---------------------------------------------------------------------------------------------------
                            Z-MATRIX (ANGSTROMS AND DEGREES)
   CD    Cent   Atom    N1       Length/X        N2       Alpha/Y        N3        Beta/Z          J
 ---------------------------------------------------------------------------------------------------
      1      1  C 
      2      2  C        1   1.300000(     1)
      3      3  C        2   1.300000(     2)      1  120.000(    20)
      4      4  C        3   1.300000(     3)      2  120.000(    21)      1    0.000(    38)      0
      5      5  C        4   1.300000(     4)      3  120.000(    22)      2    0.000(    39)      0
      6      6  C        5   1.300000(     5)      4  120.000(    23)      3    0.000(    40)      0
      7      7  F        1   1.400000(     6)      2  120.000(    24)      3  180.000(    41)      0
      8      8  H        2   1.000000(     7)      3  120.000(    25)      4  180.000(    42)      0
      9      9  H        3   1.000000(     8)      4  120.000(    26)      5  180.000(    43)      0
     10     10  H        4   1.000000(     9)      5  120.000(    27)      6  180.000(    44)      0
     11     11  H        5   1.000000(    10)      6  120.000(    28)      1  180.000(    45)      0
     12     12  H        6   1.000000(    11)      1  120.000(    29)      2  180.000(    46)      0
     13     13  O        7   2.800000(    12)      1  179.900(    30)      3  180.000(    47)      0
     14     14  C       13   1.200000(    13)      1  179.900(    31)      2  180.000(    48)      0
     15     15  H       14   1.000000(    14)      1  120.000(    32)      2   90.000(    49)      0
     16     16  H       14   1.000000(    15)      1  120.000(    33)      2  -90.000(    50)      0
     17     17  H        7   2.300000(    16)      1  100.000(    34)      2   90.000(    51)      0
     18     18  Cl      17   0.900000(    17)      7  160.000(    35)      1    0.000(    52)      0
     19     19  H        7   2.300000(    18)      1  100.000(    36)      2  -90.000(    53)      0
     20     20  Cl      19   0.900000(    19)      7  160.000(    37)      1    0.000(    54)      0
 ---------------------------------------------------------------------------------------------------
                         Z-Matrix orientation:                         
 ---------------------------------------------------------------------
 Center     Atomic      Atomic             Coordinates (Angstroms)
 Number     Number       Type             X           Y           Z
 ---------------------------------------------------------------------
      1          6           0        0.000000    0.000000    0.000000
      2          6           0        0.000000    0.000000    1.300000
      3          6           0        1.125833    0.000000    1.950000
      4          6           0        2.251666    0.000000    1.300000
      5          6           0        2.251666    0.000000   -0.000000
      6          6           0        1.125833    0.000000   -0.650000
      7          9           0       -1.212436   -0.000000   -0.700000
      8          1           0       -0.866025   -0.000000    1.800000
      9          1           0        1.125833   -0.000000    2.950000
     10          1           0        3.117691   -0.000000    1.800000
     11          1           0        3.117691   -0.000000   -0.500000
     12          1           0        1.125833   -0.000000   -1.650000
     13          8           0       -3.634860   -0.000000   -2.104230
     14          6           0       -4.672340   -0.000000   -2.707251
     15          1           0       -5.104965    0.866025   -2.957922
     16          1           0       -5.104965   -0.866025   -2.957922
     17          1           0       -1.558318    2.265058   -0.899695
     18         17           0       -1.422973    3.151385   -0.821554
     19          1           0       -1.558318   -2.265058   -0.899695
     20         17           0       -1.422973   -3.151385   -0.821554
 ---------------------------------------------------------------------
                    Distance matrix (angstroms):
                    1          2          3          4          5
     1  C    0.000000
     2  C    1.300000   0.000000
     3  C    2.251666   1.300000   0.000000
     4  C    2.600000   2.251666   1.300000   0.000000
     5  C    2.251666   2.600000   2.251666   1.300000   0.000000
     6  C    1.300000   2.251666   2.600000   2.251666   1.300000
     7  F    1.400000   2.338803   3.534119   4.000000   3.534119
     8  H    1.997498   1.000000   1.997498   3.157531   3.600000
     9  H    3.157531   1.997498   1.000000   1.997498   3.157531
    10  H    3.600000   3.157531   1.997498   1.000000   1.997498
    11  H    3.157531   3.600000   3.157531   1.997498   1.000000
    12  H    1.997498   3.157531   3.600000   3.157531   1.997498
    13  O    4.199999   4.980059   6.253077   6.799997   6.251317
    14  C    5.399997   6.155390   7.436988   7.999995   7.434452
    15  H    5.963218   6.703772   7.978755   8.543999   7.976172
    16  H    5.963218   6.703772   7.978755   8.543999   7.976172
    17  H    2.892800   3.521009   4.522822   4.948245   4.522822
    18  Cl   3.554016   4.056731   4.910107   5.285375   4.910107
    19  H    2.892800   3.521009   4.522822   4.948245   4.522822
    20  Cl   3.554016   4.056731   4.910107   5.285375   4.910107
                    6          7          8          9         10
     6  C    0.000000
     7  F    2.338803   0.000000
     8  H    3.157531   2.523886   0.000000
     9  H    3.600000   4.334743   2.300000   0.000000
    10  H    3.157531   5.000000   3.983717   2.300000   0.000000
    11  H    1.997498   4.334743   4.600000   3.983717   2.300000
    12  H    1.000000   2.523886   3.983717   4.600000   3.983717
    13  O    4.977849   2.800000   4.786382   6.943301   7.799997
    14  C    6.152324   3.999999   5.899436   8.100821   8.999995
    15  H    6.700697   4.582575   6.430896   8.629970   9.539387
    16  H    6.700697   4.582575   6.430896   8.629970   9.539387
    17  H    3.521009   2.300000   3.591394   5.211076   5.855246
    18  Cl   4.056731   3.160748   4.136902   5.536448   6.117303
    19  H    3.521009   2.300000   3.591394   5.211076   5.855246
    20  Cl   4.056731   3.160748   4.136902   5.536448   6.117303
                   11         12         13         14         15
    11  H    0.000000
    12  H    2.300000   0.000000
    13  O    6.940497   4.782313   0.000000
    14  C    8.096700   5.893776   1.200000   0.000000
    15  H    8.625744   6.425224   1.907878   1.000000   0.000000
    16  H    8.625744   6.425224   1.907878   1.000000   1.732051
    17  H    5.211076   3.591394   3.300517   4.253807   4.332700
    18  Cl   5.536448   4.136902   4.058193   4.903618   4.831563
    19  H    5.211076   3.591394   3.300517   4.253807   5.159329
    20  Cl   5.536448   4.136902   4.058193   4.903618   5.853266
                   16         17         18         19         20
    16  H    0.000000
    17  H    5.159329   0.000000
    18  Cl   5.853266   0.900000   0.000000
    19  H    4.332700   4.530116   5.418697   0.000000
    20  Cl   4.831563   5.418697   6.302770   0.900000   0.000000
 Stoichiometry    C7H9Cl2FO
 Framework group  CS[SG(C7H5FO),X(H4Cl2)]
 Deg. of freedom    34
 Full point group                 CS      NOp   2
 Largest Abelian subgroup         CS      NOp   2
 Largest concise Abelian subgroup CS      NOp   2
                         Standard orientation:                         
 ---------------------------------------------------------------------
 Center     Atomic      Atomic             Coordinates (Angstroms)
 Number     Number       Type             X           Y           Z
 ---------------------------------------------------------------------
      1          6           0       -0.001056   -0.924160    0.000000
      2          6           0       -1.126889   -1.574160    0.000000
      3          6           0       -1.126889   -2.874160    0.000000
      4          6           0       -0.001056   -3.524160    0.000000
      5          6           0        1.124777   -2.874160    0.000000
      6          6           0        1.124777   -1.574160    0.000000
      7          9           0       -0.001056    0.475840    0.000000
      8          1           0       -1.992914   -1.074160    0.000000
      9          1           0       -1.992914   -3.374160    0.000000
     10          1           0       -0.001056   -4.524160    0.000000
     11          1           0        1.990803   -3.374160    0.000000
     12          1           0        1.990803   -1.074160    0.000000
     13          8           0        0.003831    3.275836    0.000000
     14          6           0        0.007322    4.475831    0.000000
     15          1           0        0.008098    4.975830    0.866025
     16          1           0        0.008098    4.975830   -0.866025
     17          1           0       -0.001056    0.875231    2.265058
     18         17           0       -0.001056    0.718947    3.151385
     19          1           0       -0.001056    0.875231   -2.265058
     20         17           0       -0.001056    0.718947   -3.151385
 ---------------------------------------------------------------------
 Rotational constants (GHZ):           0.6452293           0.4842512           0.3020406
 Standard basis: 6-311++G(d,p) (5D, 7F)
 There are   228 symmetry adapted cartesian basis functions of A'  symmetry.
 There are   104 symmetry adapted cartesian basis functions of A"  symmetry.
 There are   218 symmetry adapted basis functions of A'  symmetry.
 There are   103 symmetry adapted basis functions of A"  symmetry.
   321 basis functions,   511 primitive gaussians,   332 cartesian basis functions
    51 alpha electrons       51 beta electrons
       nuclear repulsion energy       744.8802280448 Hartrees.
 NAtoms=   20 NActive=   20 NUniq=   17 SFac= 1.38D+00 NAtFMM=   60 NAOKFM=F Big=F
 Integral buffers will be    131072 words long.
 Raffenetti 2 integral format.
 Two-electron integral symmetry is turned on.
 One-electron integrals computed using PRISM.
 NBasis=   321 RedAO= T EigKep=  3.67D-06  NBF=   218   103
 NBsUse=   320 1.00D-06 EigRej=  3.75D-07 NBFU=   217   103
 ExpMin= 3.60D-02 ExpMax= 1.06D+05 ExpMxC= 3.62D+03 IAcc=3 IRadAn=         5 AccDes= 0.00D+00
 Harris functional with IExCor= 1009 and IRadAn=       5 diagonalized for initial guess.
 HarFok:  IExCor= 1009 AccDes= 0.00D+00 IRadAn=         5 IDoV= 1 UseB2=F ITyADJ=14
 ICtDFT=  3500011 ScaDFX=  1.000000  1.000000  1.000000  1.000000
 FoFCou: FMM=F IPFlag=           0 FMFlag=      100000 FMFlg1=           0
         NFxFlg=           0 DoJE=T BraDBF=F KetDBF=T FulRan=T
         wScrn=  0.000000 ICntrl=       500 IOpCl=  0 I1Cent=   200000004 NGrid=           0
         NMat0=    1 NMatS0=      1 NMatT0=    0 NMatD0=    1 NMtDS0=    0 NMtDT0=    0
 Petite list used in FoFCou.
 Initial guess orbital symmetries:
       Occupied  (A") (A') (A') (A') (A') (A') (A') (A') (A') (A')
                 (A') (A") (A') (A') (A") (A') (A") (A') (A") (A')
                 (A') (A') (A") (A') (A') (A') (A') (A') (A') (A')
                 (A') (A") (A') (A') (A') (A') (A") (A') (A') (A")
                 (A') (A') (A") (A') (A") (A") (A") (A') (A") (A')
                 (A")
       Virtual   (A') (A") (A") (A') (A') (A') (A') (A') (A") (A')
                 (A") (A') (A") (A') (A') (A") (A') (A') (A") (A")
                 (A') (A') (A') (A') (A') (A") (A") (A') (A') (A')
                 (A') (A") (A') (A') (A') (A") (A") (A') (A") (A')
                 (A') (A") (A') (A') (A") (A') (A') (A") (A') (A')
                 (A') (A") (A') (A') (A') (A') (A') (A') (A') (A")
                 (A') (A') (A') (A') (A') (A") (A') (A') (A') (A')
                 (A') (A') (A") (A') (A") (A') (A') (A") (A') (A")
                 (A") (A') (A') (A') (A') (A') (A') (A') (A") (A")
                 (A") (A') (A") (A") (A') (A") (A') (A') (A') (A")
                 (A') (A") (A') (A') (A') (A') (A") (A') (A') (A')
                 (A') (A') (A") (A') (A') (A") (A') (A") (A") (A')
                 (A') (A') (A") (A") (A') (A") (A') (A') (A") (A')
                 (A') (A") (A") (A') (A") (A') (A') (A") (A') (A')
                 (A') (A") (A') (A') (A') (A') (A") (A') (A") (A")
                 (A') (A') (A") (A') (A') (A") (A') (A") (A') (A")
                 (A") (A') (A') (A") (A') (A') (A') (A') (A') (A")
                 (A") (A") (A') (A') (A") (A') (A') (A') (A") (A')
                 (A") (A') (A") (A') (A') (A") (A") (A') (A') (A')
                 (A") (A") (A') (A') (A") (A') (A') (A') (A") (A')
                 (A") (A') (A') (A") (A') (A') (A') (A") (A') (A')
                 (A") (A') (A") (A") (A') (A') (A') (A") (A') (A')
                 (A') (A') (A') (A') (A") (A') (A') (A") (A') (A')
                 (A') (A") (A') (A") (A") (A') (A') (A') (A') (A')
                 (A') (A') (A') (A') (A') (A") (A') (A") (A') (A')
                 (A') (A") (A') (A') (A') (A') (A') (A') (A') (A")
                 (A') (A") (A') (A") (A') (A') (A') (A') (A")
 The electronic state of the initial guess is 1-A'.
 Requested convergence on RMS density matrix=1.00D-08 within 128 cycles.
 Requested convergence on MAX density matrix=1.00D-06.
 Requested convergence on             energy=1.00D-06.
 No special actions if energy rises.
 SCF Done:  E(RM062X) =  -1367.05212560     A.U. after   14 cycles
            NFock= 14  Conv=0.64D-08     -V/T= 1.9988

 **********************************************************************

            Population analysis using the SCF Density.

 **********************************************************************

 Orbital symmetries:
       Occupied  (A") (A') (A') (A') (A') (A') (A') (A') (A') (A')
                 (A') (A") (A') (A') (A") (A') (A") (A') (A") (A')
                 (A') (A') (A") (A') (A') (A') (A') (A') (A') (A')
                 (A") (A') (A') (A") (A') (A") (A') (A') (A') (A')
                 (A") (A') (A') (A') (A') (A") (A") (A') (A") (A")
                 (A")
       Virtual   (A') (A') (A') (A') (A") (A') (A") (A") (A') (A')
                 (A") (A') (A') (A") (A') (A') (A") (A") (A') (A')
                 (A') (A') (A") (A") (A') (A') (A') (A') (A') (A")
                 (A') (A") (A') (A") (A') (A") (A') (A') (A') (A")
                 (A') (A') (A') (A') (A') (A") (A") (A') (A') (A")
                 (A') (A") (A') (A') (A') (A') (A') (A") (A') (A')
                 (A') (A') (A") (A') (A') (A') (A') (A') (A') (A')
                 (A") (A') (A") (A') (A") (A') (A') (A') (A') (A')
                 (A") (A') (A") (A') (A") (A') (A') (A") (A') (A")
                 (A") (A') (A") (A') (A') (A") (A') (A") (A') (A')
                 (A") (A') (A') (A') (A') (A') (A') (A") (A') (A')
                 (A') (A') (A") (A") (A') (A') (A') (A") (A') (A')
                 (A') (A') (A") (A") (A') (A') (A") (A') (A') (A")
                 (A") (A") (A") (A') (A") (A') (A') (A") (A') (A')
                 (A") (A') (A') (A') (A") (A') (A') (A') (A') (A")
                 (A") (A') (A") (A") (A') (A') (A') (A") (A") (A')
                 (A') (A") (A') (A") (A') (A') (A') (A") (A') (A')
                 (A") (A") (A') (A') (A") (A') (A') (A') (A') (A")
                 (A") (A') (A") (A') (A') (A") (A') (A") (A') (A')
                 (A") (A") (A') (A') (A") (A') (A') (A') (A') (A")
                 (A') (A') (A') (A') (A") (A') (A') (A') (A") (A")
                 (A') (A") (A") (A") (A') (A') (A') (A") (A') (A')
                 (A') (A') (A') (A") (A') (A") (A') (A') (A') (A')
                 (A') (A") (A") (A') (A") (A') (A') (A') (A') (A')
                 (A') (A') (A') (A') (A') (A") (A') (A") (A') (A')
                 (A') (A") (A') (A') (A') (A') (A') (A') (A') (A")
                 (A') (A") (A') (A") (A') (A') (A') (A') (A")
 The electronic state is 1-A'.
 Alpha  occ. eigenvalues -- -102.63548-102.63548 -25.24918 -19.64116 -10.61992
 Alpha  occ. eigenvalues --  -10.61286 -10.52569 -10.52567 -10.52408 -10.52397
 Alpha  occ. eigenvalues --  -10.51721  -9.80038  -9.80037  -7.52759  -7.52759
 Alpha  occ. eigenvalues --   -7.51584  -7.51584  -7.51583  -7.51583  -1.35476
 Alpha  occ. eigenvalues --   -1.19190  -1.03263  -1.02493  -1.02460  -0.89515
 Alpha  occ. eigenvalues --   -0.88567  -0.75708  -0.73972  -0.72488  -0.66502
 Alpha  occ. eigenvalues --   -0.61028  -0.59127  -0.58824  -0.58598  -0.57242
 Alpha  occ. eigenvalues --   -0.55379  -0.54167  -0.53551  -0.52798  -0.49833
 Alpha  occ. eigenvalues --   -0.47750  -0.47533  -0.44762  -0.42320  -0.39503
 Alpha  occ. eigenvalues --   -0.39498  -0.39480  -0.39467  -0.35194  -0.33959
 Alpha  occ. eigenvalues --   -0.32834
 Alpha virt. eigenvalues --   -0.01141  -0.00273   0.00269   0.01219   0.01939
 Alpha virt. eigenvalues --    0.01952   0.02422   0.03069   0.03439   0.03735
 Alpha virt. eigenvalues --    0.04371   0.05505   0.06758   0.07031   0.07303
 Alpha virt. eigenvalues --    0.07909   0.07976   0.09406   0.10815   0.10859
 Alpha virt. eigenvalues --    0.11486   0.11609   0.11664   0.11792   0.12494
 Alpha virt. eigenvalues --    0.13255   0.13494   0.13980   0.13996   0.14228
 Alpha virt. eigenvalues --    0.14823   0.15152   0.16413   0.16420   0.16472
 Alpha virt. eigenvalues --    0.16787   0.17195   0.17516   0.18346   0.19187
 Alpha virt. eigenvalues --    0.19460   0.20767   0.21551   0.22915   0.23490
 Alpha virt. eigenvalues --    0.23561   0.23979   0.24322   0.25624   0.26270
 Alpha virt. eigenvalues --    0.26346   0.27831   0.29306   0.30675   0.32264
 Alpha virt. eigenvalues --    0.32682   0.33231   0.33630   0.34240   0.36077
 Alpha virt. eigenvalues --    0.36298   0.37605   0.40059   0.41114   0.41138
 Alpha virt. eigenvalues --    0.42660   0.42683   0.43160   0.45684   0.45970
 Alpha virt. eigenvalues --    0.49103   0.50170   0.50505   0.51604   0.52684
 Alpha virt. eigenvalues --    0.53550   0.55266   0.55645   0.56405   0.58551
 Alpha virt. eigenvalues --    0.58825   0.59162   0.59392   0.60385   0.61491
 Alpha virt. eigenvalues --    0.61764   0.63793   0.63997   0.65019   0.65478
 Alpha virt. eigenvalues --    0.66438   0.67610   0.69456   0.69977   0.70994
 Alpha virt. eigenvalues --    0.72032   0.73542   0.75716   0.76481   0.77440
 Alpha virt. eigenvalues --    0.79950   0.80639   0.81200   0.82728   0.85355
 Alpha virt. eigenvalues --    0.86318   0.89075   0.89146   0.89740   0.91635
 Alpha virt. eigenvalues --    0.91840   0.93642   0.94525   0.95807   0.97301
 Alpha virt. eigenvalues --    1.00821   1.01824   1.01873   1.02485   1.02735
 Alpha virt. eigenvalues --    1.06306   1.06769   1.07378   1.07856   1.11519
 Alpha virt. eigenvalues --    1.11976   1.15933   1.16797   1.17393   1.18266
 Alpha virt. eigenvalues --    1.22871   1.23775   1.25769   1.27237   1.28763
 Alpha virt. eigenvalues --    1.34702   1.34891   1.34906   1.37428   1.43152
 Alpha virt. eigenvalues --    1.51923   1.52149   1.52907   1.56147   1.59915
 Alpha virt. eigenvalues --    1.61322   1.61552   1.64594   1.65429   1.67415
 Alpha virt. eigenvalues --    1.67948   1.70079   1.71613   1.73340   1.76208
 Alpha virt. eigenvalues --    1.76407   1.79651   1.81554   1.81648   1.82812
 Alpha virt. eigenvalues --    1.84506   1.85398   1.87331   1.88919   1.90205
 Alpha virt. eigenvalues --    1.94210   1.95346   1.96465   1.98883   2.04097
 Alpha virt. eigenvalues --    2.04592   2.05557   2.05712   2.08049   2.11493
 Alpha virt. eigenvalues --    2.16173   2.17211   2.17354   2.19069   2.19268
 Alpha virt. eigenvalues --    2.21523   2.22152   2.29073   2.30949   2.32072
 Alpha virt. eigenvalues --    2.33428   2.35056   2.36159   2.38504   2.40758
 Alpha virt. eigenvalues --    2.41771   2.46317   2.48274   2.50503   2.50843
 Alpha virt. eigenvalues --    2.58330   2.64877   2.66362   2.70567   2.71686
 Alpha virt. eigenvalues --    2.74515   2.76551   2.78018   2.79480   2.80406
 Alpha virt. eigenvalues --    2.81021   2.86171   2.86424   2.87978   2.90168
 Alpha virt. eigenvalues --    2.90695   2.96462   2.98260   2.98763   3.03119
 Alpha virt. eigenvalues --    3.08712   3.11603   3.24488   3.27074   3.35345
 Alpha virt. eigenvalues --    3.39743   3.41831   3.47375   3.48079   3.55049
 Alpha virt. eigenvalues --    3.59951   3.61640   3.64795   3.75030   3.76114
 Alpha virt. eigenvalues --    3.87679   3.89006   3.99656   4.00609   4.05289
 Alpha virt. eigenvalues --    4.09402   4.14148   4.18185   4.19132   4.26118
 Alpha virt. eigenvalues --    4.26459   4.36812   4.95546   4.96132   5.11467
 Alpha virt. eigenvalues --    5.24603   5.82609   6.57307   6.62800   6.91171
 Alpha virt. eigenvalues --   10.32311  10.35008  23.73318  24.16985  24.27012
 Alpha virt. eigenvalues --   24.31525  24.54179  24.57240  24.72842  25.89675
 Alpha virt. eigenvalues --   25.95420  26.02064  26.08455  27.14574  27.15873
 Alpha virt. eigenvalues --   50.07019  66.98292 216.53105 216.57320
          Condensed to atoms (all electrons):
               1          2          3          4          5          6
     1  C   13.879836  -1.527274  -2.449898   0.023568  -2.452231  -1.541165
     2  C   -1.527274  14.369272   2.075129  -0.948299  -0.719137  -7.567962
     3  C   -2.449898   2.075129   6.680436   0.221715   0.048387  -0.717946
     4  C    0.023568  -0.948299   0.221715   7.517450   0.223588  -0.943439
     5  C   -2.452231  -0.719137   0.048387   0.223588   6.680477   2.077156
     6  C   -1.541165  -7.567962  -0.717946  -0.943439   2.077156  14.375423
     7  F    0.715122  -0.295607  -0.061168  -0.012866  -0.061617  -0.296335
     8  H   -0.115783   0.543661  -0.067572  -0.034391   0.031502  -0.032764
     9  H    0.012509  -0.030617   0.404664  -0.133286   0.004548   0.067630
    10  H    0.036767  -0.022273  -0.070142   0.507084  -0.070177  -0.022114
    11  H    0.012694   0.067650   0.004556  -0.133174   0.404679  -0.030943
    12  H   -0.115365  -0.032031   0.031631  -0.034768  -0.067891   0.542985
    13  O    0.075898  -0.023361  -0.001410  -0.002194  -0.001403  -0.023490
    14  C   -0.005934   0.001227   0.000801  -0.000085   0.000794   0.001177
    15  H   -0.000103  -0.000210  -0.000093   0.000160  -0.000094  -0.000214
    16  H   -0.000103  -0.000210  -0.000093   0.000160  -0.000094  -0.000214
    17  H    0.008649  -0.007804  -0.012478   0.025019  -0.012409  -0.008490
    18  Cl  -0.025988   0.020028   0.011456  -0.026846   0.011422   0.020814
    19  H    0.008649  -0.007804  -0.012478   0.025019  -0.012409  -0.008490
    20  Cl  -0.025988   0.020028   0.011456  -0.026846   0.011422   0.020814
               7          8          9         10         11         12
     1  C    0.715122  -0.115783   0.012509   0.036767   0.012694  -0.115365
     2  C   -0.295607   0.543661  -0.030617  -0.022273   0.067650  -0.032031
     3  C   -0.061168  -0.067572   0.404664  -0.070142   0.004556   0.031631
     4  C   -0.012866  -0.034391  -0.133286   0.507084  -0.133174  -0.034768
     5  C   -0.061617   0.031502   0.004548  -0.070177   0.404679  -0.067891
     6  C   -0.296335  -0.032764   0.067630  -0.022114  -0.030943   0.542985
     7  F    9.217982  -0.020914  -0.000448   0.001203  -0.000447  -0.020863
     8  H   -0.020914   0.522766  -0.013333  -0.000008   0.003581  -0.003293
     9  H   -0.000448  -0.013333   0.504561  -0.014415   0.001028   0.003593
    10  H    0.001203  -0.000008  -0.014415   0.512364  -0.014418  -0.000009
    11  H   -0.000447   0.003581   0.001028  -0.014418   0.504547  -0.013340
    12  H   -0.020863  -0.003293   0.003593  -0.000009  -0.013340   0.522906
    13  O    0.001035   0.001425   0.000105  -0.000006   0.000105   0.001433
    14  C    0.000384   0.000085   0.000005   0.000003   0.000005   0.000091
    15  H    0.000002  -0.000078  -0.000011  -0.000000  -0.000011  -0.000076
    16  H    0.000002  -0.000078  -0.000011  -0.000000  -0.000011  -0.000076
    17  H    0.003393   0.000704  -0.001118  -0.000013  -0.001105   0.000611
    18  Cl   0.004302   0.002917   0.001084   0.000048   0.001077   0.002987
    19  H    0.003393   0.000704  -0.001118  -0.000013  -0.001105   0.000611
    20  Cl   0.004302   0.002917   0.001084   0.000048   0.001077   0.002987
              13         14         15         16         17         18
     1  C    0.075898  -0.005934  -0.000103  -0.000103   0.008649  -0.025988
     2  C   -0.023361   0.001227  -0.000210  -0.000210  -0.007804   0.020028
     3  C   -0.001410   0.000801  -0.000093  -0.000093  -0.012478   0.011456
     4  C   -0.002194  -0.000085   0.000160   0.000160   0.025019  -0.026846
     5  C   -0.001403   0.000794  -0.000094  -0.000094  -0.012409   0.011422
     6  C   -0.023490   0.001177  -0.000214  -0.000214  -0.008490   0.020814
     7  F    0.001035   0.000384   0.000002   0.000002   0.003393   0.004302
     8  H    0.001425   0.000085  -0.000078  -0.000078   0.000704   0.002917
     9  H    0.000105   0.000005  -0.000011  -0.000011  -0.001118   0.001084
    10  H   -0.000006   0.000003  -0.000000  -0.000000  -0.000013   0.000048
    11  H    0.000105   0.000005  -0.000011  -0.000011  -0.001105   0.001077
    12  H    0.001433   0.000091  -0.000076  -0.000076   0.000611   0.002987
    13  O    8.146172   0.270024  -0.090297  -0.090297   0.004392  -0.004262
    14  C    0.270024   4.860834   0.395396   0.395396  -0.000903  -0.002875
    15  H   -0.090297   0.395396   0.757340  -0.168154  -0.000912   0.003485
    16  H   -0.090297   0.395396  -0.168154   0.757340   0.002169  -0.001404
    17  H    0.004392  -0.000903  -0.000912   0.002169   0.763994   0.117144
    18  Cl  -0.004262  -0.002875   0.003485  -0.001404   0.117144  16.966927
    19  H    0.004392  -0.000903   0.002169  -0.000912  -0.002862   0.001915
    20  Cl  -0.004262  -0.002875  -0.001404   0.003485   0.001915  -0.001149
              19         20
     1  C    0.008649  -0.025988
     2  C   -0.007804   0.020028
     3  C   -0.012478   0.011456
     4  C    0.025019  -0.026846
     5  C   -0.012409   0.011422
     6  C   -0.008490   0.020814
     7  F    0.003393   0.004302
     8  H    0.000704   0.002917
     9  H   -0.001118   0.001084
    10  H   -0.000013   0.000048
    11  H   -0.001105   0.001077
    12  H    0.000611   0.002987
    13  O    0.004392  -0.004262
    14  C   -0.000903  -0.002875
    15  H    0.002169  -0.001404
    16  H   -0.000912   0.003485
    17  H   -0.002862   0.001915
    18  Cl   0.001915  -0.001149
    19  H    0.763994   0.117144
    20  Cl   0.117144  16.966927
 Mulliken charges:
               1
     1  C   -0.513861
     2  C    0.085596
     3  C   -0.096955
     4  C   -0.247571
     5  C   -0.096514
     6  C    0.087568
     7  F   -0.180857
     8  H    0.177951
     9  H    0.193546
    10  H    0.156072
    11  H    0.193554
    12  H    0.177874
    13  O   -0.263999
    14  C    0.087352
    15  H    0.103103
    16  H    0.103103
    17  H    0.120102
    18  Cl  -0.103084
    19  H    0.120102
    20  Cl  -0.103084
 Sum of Mulliken charges =  -0.00000
 Mulliken charges with hydrogens summed into heavy atoms:
               1
     1  C   -0.513861
     2  C    0.263547
     3  C    0.096590
     4  C   -0.091499
     5  C    0.097041
     6  C    0.265443
     7  F   -0.180857
    13  O   -0.263999
    14  C    0.293559
    18  Cl   0.017018
    20  Cl   0.017018
 Electronic spatial extent (au):  <R**2>=           3466.8113
 Charge=              0.0000 electrons
 Dipole moment (field-independent basis, Debye):
    X=              0.0073    Y=              0.7264    Z=              0.0000  Tot=              0.7264
 Quadrupole moment (field-independent basis, Debye-Ang):
   XX=            -72.9016   YY=            -50.6502   ZZ=            -89.3755
   XY=              0.0432   XZ=              0.0000   YZ=             -0.0000
 Traceless Quadrupole moment (field-independent basis, Debye-Ang):
   XX=             -1.9258   YY=             20.3256   ZZ=            -18.3998
   XY=              0.0432   XZ=              0.0000   YZ=             -0.0000
 Octapole moment (field-independent basis, Debye-Ang**2):
  XXX=             -0.0046  YYY=            116.6038  ZZZ=              0.0000  XYY=              0.2083
  XXY=             -0.8560  XXZ=             -0.0000  XZZ=              0.0187  YZZ=             10.6414
  YYZ=             -0.0000  XYZ=             -0.0000
 Hexadecapole moment (field-independent basis, Debye-Ang**3):
 XXXX=           -272.7165 YYYY=          -1780.8660 ZZZZ=          -1683.3411 XXXY=             -0.9756
 XXXZ=              0.0000 YYYX=              0.0623 YYYZ=             -0.0000 ZZZX=             -0.0000
 ZZZY=             -0.0000 XXYY=           -443.3015 XXZZ=           -338.6946 YYZZ=           -722.6024
 XXYZ=             -0.0000 YYXZ=              0.0000 ZZXY=             -0.3194
 N-N= 7.448802280448D+02 E-N=-4.728671734371D+03  KE= 1.368732984260D+03
 Symmetry A'   KE= 8.879210116147D+02
 Symmetry A"   KE= 4.808119726455D+02
 Calling FoFJK, ICntrl=      2127 FMM=F ISym2X=1 I1Cent= 0 IOpClX= 0 NMat=1 NMatS=1 NMatT=0.
 ***** Axes restored to original set *****
 -------------------------------------------------------------------
 Center     Atomic                   Forces (Hartrees/Bohr)
 Number     Number              X              Y              Z
 -------------------------------------------------------------------
      1        6          -0.090046780   -0.000000000   -0.051986856
      2        6          -0.052520571    0.000000000    0.015282645
      3        6           0.002548936    0.000000000    0.036601994
      4        6           0.038869000    0.000000000    0.022441004
      5        6           0.032972216    0.000000000   -0.016093319
      6        6          -0.013025743   -0.000000000   -0.053126459
      7        9           0.025021421   -0.000000000    0.014447111
      8        1          -0.065698468    0.000000000    0.035535048
      9        1          -0.001618198    0.000000000    0.073822362
     10        1           0.064316948    0.000000000    0.037133448
     11        1           0.063122998    0.000000000   -0.038312563
     12        1          -0.002075502   -0.000000000   -0.074663870
     13        8           0.010863683   -0.000000000    0.006248343
     14        6           0.067898557    0.000000000    0.039553285
     15        1          -0.039492749    0.072410965   -0.022964865
     16        1          -0.039492749   -0.072410965   -0.022964865
     17        1          -0.117078842   -0.759294479   -0.067596930
     18       17           0.116257343    0.758018324    0.067120707
     19        1          -0.117078842    0.759294479   -0.067596930
     20       17           0.116257343   -0.758018324    0.067120707
 -------------------------------------------------------------------
 Cartesian Forces:  Max     0.759294479 RMS     0.201896955
 -----------------------------------------------------------------------------------------------
                       Internal Coordinate Forces (Hartree/Bohr or radian)
  Cent   Atom   N1       Length/X         N2         Alpha/Y        N3         Beta/Z          J
 -----------------------------------------------------------------------------------------------
      1  C 
      2  C        1   0.037238(     1)
      3  C        2   0.152829(     2)      1   0.162365(    20)
      4  C        3   0.220815(     3)      2   0.413731(    21)      1  -0.000000(    38)     0
      5  C        4   0.183579(     4)      3   0.449242(    22)      2  -0.000000(    39)     0
      6  C        5   0.078356(     5)      4   0.252230(    23)      3  -0.000000(    40)     0
      7  F        1  -0.026736(     6)      2   0.000002(    24)      3   0.000000(    41)     0
      8  H        2   0.074664(     7)      3   0.003921(    25)      4   0.000000(    42)     0
      9  H        3   0.073822(     8)      4   0.003058(    26)      5   0.000000(    43)     0
     10  H        4   0.074267(     9)      5   0.000000(    27)      6   0.000000(    44)     0
     11  H        5   0.073822(    10)      6  -0.003058(    28)      1   0.000000(    45)     0
     12  H        6   0.074664(    11)      1  -0.003922(    29)      2  -0.000000(    46)     0
     13  O        7   0.000257(    12)      1   0.000005(    30)      3   0.000000(    47)     0
     14  C       13   0.012790(    13)      1   0.000103(    31)      2   0.000000(    48)     0
     15  H       14   0.085552(    14)      1   0.006346(    32)      2   0.000116(    49)     0
     16  H       14   0.085552(    15)      1   0.006346(    33)      2  -0.000116(    50)     0
     17  H        7  -0.001092(    16)      1   0.004051(    34)      2   0.000008(    51)     0
     18  Cl      17   0.769813(    17)      7  -0.000977(    35)      1   0.000000(    52)     0
     19  H        7  -0.001092(    18)      1   0.004051(    36)      2  -0.000008(    53)     0
     20  Cl      19   0.769813(    19)      7  -0.000977(    37)      1  -0.000000(    54)     0
 -----------------------------------------------------------------------------------------------
 Internal  Forces:  Max     0.769813230 RMS     0.182816996

 GradGradGradGradGradGradGradGradGradGradGradGradGradGradGradGradGradGrad
 Berny optimization.
 Search for a local minimum.
 Step number   1 out of a maximum of   29
 All quantities printed in internal units (Hartrees-Bohrs-Radians)
 Second derivative matrix not updated -- first step.
 The second derivative matrix:
                          d1        d2        d3        d4        d5
           d1           0.95300
           d2          -0.05489   0.95300
           d3          -0.33597   0.33597   1.34386
           d4          -0.28107   0.05489   0.33597   0.95300
           d5           0.05489  -0.28107  -0.33597  -0.05489   0.95300
           d6           0.00000   0.00000   0.00000  -0.00000  -0.00000
           d7           0.00000   0.00000  -0.00000  -0.00000  -0.00000
           d8          -0.00000  -0.00000   0.00000   0.00000   0.00000
           d9           0.00000   0.00000   0.00000  -0.00000  -0.00000
           d10         -0.00000  -0.00000  -0.00000   0.00000   0.00000
           d11          0.00000  -0.00000  -0.00000  -0.00000  -0.00000
           d12          0.00000   0.00000   0.00000  -0.00000  -0.00000
           d13          0.00000   0.00000   0.00000  -0.00000  -0.00000
           d14         -0.00000  -0.00000   0.00000   0.00000   0.00000
           d15          0.00000   0.00000   0.00000  -0.00000  -0.00000
           d16         -0.00000  -0.00000  -0.00000   0.00000   0.00000
           d17         -0.00000  -0.00000   0.00000   0.00000   0.00000
           d18         -0.00000  -0.00000  -0.00000   0.00000   0.00000
           d19         -0.00000  -0.00000   0.00000   0.00000   0.00000
                          d6        d7        d8        d9        d10
           d6           0.45621
           d7          -0.00000   0.47688
           d8          -0.00000   0.00000   0.47688
           d9           0.00000  -0.00000   0.00000   0.47688
           d10          0.00000  -0.00000  -0.00000   0.00000   0.47688
           d11          0.00000  -0.00000   0.00000   0.00000   0.00000
           d12         -0.00000   0.00000  -0.00000   0.00000   0.00000
           d13         -0.00000   0.00000  -0.00000   0.00000   0.00000
           d14          0.00000   0.00000   0.00000  -0.00000  -0.00000
           d15         -0.00000  -0.00000  -0.00000   0.00000   0.00000
           d16         -0.00000  -0.00000   0.00000  -0.00000  -0.00000
           d17          0.00000   0.00000   0.00000  -0.00000  -0.00000
           d18          0.00000   0.00000   0.00000  -0.00000  -0.00000
           d19          0.00000   0.00000   0.00000  -0.00000  -0.00000
                          d11       d12       d13       d14       d15
           d11          0.47688
           d12          0.00000   0.02330
           d13          0.00000  -0.00000   1.04823
           d14         -0.00000   0.00000   0.00000   0.47688
           d15          0.00000   0.00000  -0.00000   0.00000   0.47688
           d16         -0.00000   0.00000   0.00000   0.00000   0.00000
           d17         -0.00000  -0.00000  -0.00000   0.00000  -0.00000
           d18          0.00000  -0.00000   0.00000   0.00000  -0.00000
           d19          0.00000   0.00000   0.00000  -0.00000   0.00000
                          d16       d17       d18       d19
           d16          0.02721
           d17          0.00000   1.53817
           d18          0.00000   0.00000   0.02721
           d19          0.00000  -0.00000  -0.00000   1.53817
 ITU=  0
     Eigenvalues ---    0.02330   0.02721   0.02721   0.45621   0.47688
     Eigenvalues ---    0.47688   0.47688   0.47688   0.47688   0.47688
     Eigenvalues ---    0.47688   0.67193   0.67193   0.67193   1.04823
     Eigenvalues ---    1.12429   1.53817   1.53817   2.01579
 RFO step:  Lambda=-6.45782808D-01 EMin= 2.33007068D-02
 Linear search not attempted -- first point.
 Maximum step size (   0.300) exceeded in Quadratic search.
    -- Step size scaled by   0.527
 Variable       Old X    -DE/DX   Delta X   Delta X   Delta X     New X
                                 (Linear)    (Quad)   (Total)
    d1        2.45664   0.03724   0.00000   0.03347   0.03347   2.49011
    d2        2.45664   0.15283   0.00000   0.04626   0.04626   2.50290
    d3        2.45664   0.22082   0.00000   0.05490   0.05490   2.51154
    d4        2.45664   0.18358   0.00000   0.05489   0.05489   2.51153
    d5        2.45664   0.07836   0.00000   0.04625   0.04625   2.50289
    d6        2.64562  -0.02674   0.00000  -0.01279  -0.01279   2.63282
    d7        1.88973   0.07466   0.00000   0.03507   0.03507   1.92479
    d8        1.88973   0.07382   0.00000   0.03467   0.03467   1.92440
    d9        1.88973   0.07427   0.00000   0.03488   0.03488   1.92461
   d10        1.88973   0.07382   0.00000   0.03467   0.03467   1.92440
   d11        1.88973   0.07466   0.00000   0.03507   0.03507   1.92479
   d12        5.29123   0.00026   0.00000   0.00020   0.00020   5.29144
   d13        2.26767   0.01279   0.00000   0.00398   0.00398   2.27165
   d14        1.88973   0.08555   0.00000   0.04018   0.04018   1.92991
   d15        1.88973   0.08555   0.00000   0.04018   0.04018   1.92991
   d16        4.34637  -0.00109   0.00000  -0.00086  -0.00086   4.34551
   d17        1.70075   0.76981   0.00000   0.18586   0.18586   1.88661
   d18        4.34637  -0.00109   0.00000  -0.00086  -0.00086   4.34551
   d19        1.70075   0.76981   0.00000   0.18586   0.18586   1.88661
         Item               Value     Threshold  Converged?
 Maximum Force            0.769813     0.000450     NO 
 RMS     Force            0.265732     0.000300     NO 
 Maximum Displacement     0.185855     0.001800     NO 
 RMS     Displacement     0.068825     0.001200     NO 
 Predicted change in Energy=-2.797942D-01
 GradGradGradGradGradGradGradGradGradGradGradGradGradGradGradGradGradGrad

 ---------------------------------------------------------------------------------------------------
                            Z-MATRIX (ANGSTROMS AND DEGREES)
   CD    Cent   Atom    N1       Length/X        N2       Alpha/Y        N3        Beta/Z          J
 ---------------------------------------------------------------------------------------------------
      1      1  C 
      2      2  C        1   1.317710(     1)
      3      3  C        2   1.324480(     2)      1  120.000(    20)
      4      4  C        3   1.329051(     3)      2  120.000(    21)      1    0.000(    38)      0
      5      5  C        4   1.329047(     4)      3  120.000(    22)      2    0.000(    39)      0
      6      6  C        5   1.324472(     5)      4  120.000(    23)      3    0.000(    40)      0
      7      7  F        1   1.393230(     6)      2  120.000(    24)      3  180.000(    41)      0
      8      8  H        2   1.018556(     7)      3  120.000(    25)      4  180.000(    42)      0
      9      9  H        3   1.018347(     8)      4  120.000(    26)      5  180.000(    43)      0
     10     10  H        4   1.018458(     9)      5  120.000(    27)      6  180.000(    44)      0
     11     11  H        5   1.018347(    10)      6  120.000(    28)      1  180.000(    45)      0
     12     12  H        6   1.018556(    11)      1  120.000(    29)      2  180.000(    46)      0
     13     13  O        7   2.800107(    12)      1  179.900(    30)      3  180.000(    47)      0
     14     14  C       13   1.202107(    13)      1  179.900(    31)      2  180.000(    48)      0
     15     15  H       14   1.021262(    14)      1  120.000(    32)      2   90.000(    49)      0
     16     16  H       14   1.021262(    15)      1  120.000(    33)      2  -90.000(    50)      0
     17     17  H        7   2.299547(    16)      1  100.000(    34)      2   90.000(    51)      0
     18     18  Cl      17   0.998350(    17)      7  160.000(    35)      1    0.000(    52)      0
     19     19  H        7   2.299547(    18)      1  100.000(    36)      2  -90.000(    53)      0
     20     20  Cl      19   0.998350(    19)      7  160.000(    37)      1    0.000(    54)      0
 ---------------------------------------------------------------------------------------------------
                         Z-Matrix orientation:                         
 ---------------------------------------------------------------------
 Center     Atomic      Atomic             Coordinates (Angstroms)
 Number     Number       Type             X           Y           Z
 ---------------------------------------------------------------------
      1          6           0        0.000000    0.000000    0.000000
      2          6           0        0.000000    0.000000    1.317710
      3          6           0        1.147033    0.000000    1.979950
      4          6           0        2.298025    0.000000    1.315425
      5          6           0        2.298025    0.000000   -0.013622
      6          6           0        1.150998    0.000000   -0.675858
      7          9           0       -1.206573   -0.000000   -0.696615
      8          1           0       -0.882096   -0.000000    1.826988
      9          1           0        1.147033   -0.000000    2.998297
     10          1           0        3.180035   -0.000000    1.824654
     11          1           0        3.179940   -0.000000   -0.522796
     12          1           0        1.143512   -0.000000   -1.694387
     13          8           0       -3.629090   -0.000000   -2.100899
     14          6           0       -4.668391   -0.000000   -2.704980
     15          1           0       -5.110213    0.884439   -2.960983
     16          1           0       -5.110213   -0.884439   -2.960983
     17          1           0       -1.552387    2.264612   -0.896271
     18         17           0       -1.402252    3.247795   -0.809590
     19          1           0       -1.552387   -2.264612   -0.896271
     20         17           0       -1.402252   -3.247795   -0.809590
 ---------------------------------------------------------------------
                    Distance matrix (angstroms):
                    1          2          3          4          5
     1  C    0.000000
     2  C    1.317710   0.000000
     3  C    2.288206   1.324480   0.000000
     4  C    2.647879   2.298026   1.329051   0.000000
     5  C    2.298065   2.655817   2.301980   1.329047   0.000000
     6  C    1.334759   2.301980   2.655811   2.298016   1.324472
     7  F    1.393230   2.348047   3.564192   4.041103   3.570530
     8  H    2.028788   1.018556   2.034886   3.221004   3.674373
     9  H    3.210214   2.034714   1.018347   2.038833   3.224351
    10  H    3.666331   3.220189   2.038925   1.018458   2.038921
    11  H    3.222628   3.674163   3.224352   2.038830   1.018347
    12  H    2.044154   3.221855   3.674339   3.223642   2.039086
    13  O    4.193336   4.985698   6.282092   6.841196   6.283901
    14  C    5.395442   6.162460   7.467779   8.043296   7.468223
    15  H    5.971928   6.723371   8.021732   8.599528   8.021917
    16  H    5.971928   6.723371   8.021732   8.599528   8.021917
    17  H    2.888196   3.527051   4.548405   4.984551   4.553374
    18  Cl   3.629039   4.127940   4.982827   5.362454   4.987363
    19  H    2.888196   3.527051   4.548405   4.984551   4.553374
    20  Cl   3.629039   4.127940   4.982827   5.362454   4.987363
                    6          7          8          9         10
     6  C    0.000000
     7  F    2.357663   0.000000
     8  H    3.224548   2.544378   0.000000
     9  H    3.674158   4.380850   2.342932   0.000000
    10  H    3.220178   5.059558   4.062132   2.347453   0.000000
    11  H    2.034707   4.389955   4.692720   4.065809   2.347449
    12  H    1.018556   2.553125   4.062409   4.692686   4.065843
    13  O    4.987984   2.800107   4.793149   6.986641   7.859653
    14  C    6.163005   4.002213   5.905486   8.145338   9.061753
    15  H    6.723600   4.598695   6.448556   8.686103   9.613156
    16  H    6.723600   4.598695   6.448556   8.686103   9.613156
    17  H    3.533461   2.299547   3.604706   5.251953   5.909968
    18  Cl   4.133418   3.255645   4.215481   5.616675   6.203610
    19  H    3.533461   2.299547   3.604706   5.251953   5.909968
    20  Cl   4.133418   3.255645   4.215481   5.616675   6.203610
                   11         12         13         14         15
    11  H    0.000000
    12  H    2.349397   0.000000
    13  O    6.989513   4.789883   0.000000
    14  C    8.146055   5.899111   1.202107   0.000000
    15  H    8.686404   6.441706   1.927616   1.021262   0.000000
    16  H    8.686404   6.441706   1.927616   1.021262   1.768878
    17  H    5.259551   3.610170   3.300347   4.255511   4.338898
    18  Cl   5.623780   4.220421   4.144208   4.980797   4.895193
    19  H    5.259551   3.610170   3.300347   4.255511   5.180510
    20  Cl   5.623780   4.220421   4.144208   4.980797   5.954228
                   16         17         18         19         20
    16  H    0.000000
    17  H    5.180510   0.000000
    18  Cl   5.954228   0.998350   0.000000
    19  H    4.338898   4.529224   5.515133   0.000000
    20  Cl   4.895193   5.515133   6.495590   0.998350   0.000000
 Stoichiometry    C7H9Cl2FO
 Framework group  CS[SG(C7H5FO),X(H4Cl2)]
 Deg. of freedom    34
 Full point group                 CS      NOp   2
 Largest Abelian subgroup         CS      NOp   2
 Largest concise Abelian subgroup CS      NOp   2
                         Standard orientation:                         
 ---------------------------------------------------------------------
 Center     Atomic      Atomic             Coordinates (Angstroms)
 Number     Number       Type             X           Y           Z
 ---------------------------------------------------------------------
      1          6           0       -0.004389   -0.905590   -0.000000
      2          6           0       -1.145560   -1.564445   -0.000000
      3          6           0       -1.145560   -2.888925   -0.000000
      4          6           0        0.005432   -3.553450   -0.000000
      5          6           0        1.156420   -2.888927   -0.000000
      6          6           0        1.156420   -1.564455   -0.000000
      7          9           0       -0.004389    0.487641    0.000000
      8          1           0       -2.027655   -1.055167    0.000000
      9          1           0       -2.027474   -3.398099   -0.000000
     10          1           0        0.005432   -4.571908   -0.000000
     11          1           0        2.038335   -3.398101   -0.000000
     12          1           0        2.034749   -1.048707   -0.000000
     13          8           0        0.000498    3.287744    0.000000
     14          6           0        0.003997    4.489845    0.000000
     15          1           0        0.004791    5.000476    0.884439
     16          1           0        0.004791    5.000476   -0.884439
     17          1           0       -0.004389    0.886953    2.264612
     18         17           0       -0.004389    0.713591    3.247795
     19          1           0       -0.004389    0.886953   -2.264612
     20         17           0       -0.004389    0.713591   -3.247795
 ---------------------------------------------------------------------
 Rotational constants (GHZ):           0.6089873           0.4794551           0.2932352
 Standard basis: 6-311++G(d,p) (5D, 7F)
 There are   228 symmetry adapted cartesian basis functions of A'  symmetry.
 There are   104 symmetry adapted cartesian basis functions of A"  symmetry.
 There are   218 symmetry adapted basis functions of A'  symmetry.
 There are   103 symmetry adapted basis functions of A"  symmetry.
   321 basis functions,   511 primitive gaussians,   332 cartesian basis functions
    51 alpha electrons       51 beta electrons
       nuclear repulsion energy       731.7109883173 Hartrees.
 NAtoms=   20 NActive=   20 NUniq=   17 SFac= 1.38D+00 NAtFMM=   60 NAOKFM=F Big=F
 Integral buffers will be    131072 words long.
 Raffenetti 2 integral format.
 Two-electron integral symmetry is turned on.
 One-electron integrals computed using PRISM.
 NBasis=   321 RedAO= T EigKep=  4.46D-06  NBF=   218   103
 NBsUse=   320 1.00D-06 EigRej=  4.62D-07 NBFU=   217   103
 Initial guess from the checkpoint file:  "model_H2b.chk"
 B after Tr=     0.000000    0.000000   -0.000000
         Rot=    1.000000    0.000000   -0.000000   -0.000753 Ang=  -0.09 deg.
 Initial guess orbital symmetries:
       Occupied  (A") (A') (A') (A') (A') (A') (A') (A') (A') (A')
                 (A') (A") (A') (A') (A") (A') (A") (A') (A") (A')
                 (A') (A') (A") (A') (A') (A') (A') (A') (A') (A')
                 (A") (A') (A') (A") (A') (A") (A') (A') (A') (A')
                 (A") (A') (A') (A') (A') (A") (A") (A') (A") (A")
                 (A")
       Virtual   (A') (A') (A') (A') (A") (A') (A") (A") (A') (A')
                 (A") (A') (A') (A") (A') (A') (A") (A") (A') (A')
                 (A') (A') (A") (A") (A') (A') (A') (A') (A') (A")
                 (A') (A") (A') (A") (A') (A") (A') (A') (A') (A")
                 (A') (A') (A') (A') (A') (A") (A") (A') (A') (A")
                 (A') (A") (A') (A') (A') (A') (A') (A") (A') (A')
                 (A') (A') (A") (A') (A') (A') (A') (A') (A') (A')
                 (A") (A') (A") (A') (A") (A') (A') (A') (A') (A')
                 (A") (A') (A") (A') (A") (A') (A') (A") (A') (A")
                 (A") (A') (A") (A') (A') (A") (A') (A") (A') (A')
                 (A") (A') (A') (A') (A') (A') (A') (A") (A') (A')
                 (A') (A') (A") (A") (A') (A') (A') (A") (A') (A')
                 (A') (A') (A") (A") (A') (A') (A") (A') (A') (A")
                 (A") (A") (A") (A') (A") (A') (A') (A") (A') (A')
                 (A") (A') (A') (A') (A") (A') (A') (A') (A') (A")
                 (A") (A') (A") (A") (A') (A') (A') (A") (A") (A')
                 (A') (A") (A') (A") (A') (A') (A') (A") (A') (A')
                 (A") (A") (A') (A') (A") (A') (A') (A') (A') (A")
                 (A") (A') (A") (A') (A') (A") (A') (A") (A') (A')
                 (A") (A") (A') (A') (A") (A') (A') (A') (A') (A")
                 (A') (A') (A') (A') (A") (A') (A') (A') (A") (A")
                 (A') (A") (A") (A") (A') (A') (A') (A") (A') (A')
                 (A') (A') (A') (A") (A') (A") (A') (A') (A') (A')
                 (A') (A") (A") (A') (A") (A') (A') (A') (A') (A')
                 (A') (A') (A') (A') (A') (A") (A') (A") (A') (A')
                 (A') (A") (A') (A') (A') (A') (A') (A') (A') (A")
                 (A') (A") (A') (A") (A') (A') (A') (A') (A")
 ExpMin= 3.60D-02 ExpMax= 1.06D+05 ExpMxC= 3.62D+03 IAcc=3 IRadAn=         5 AccDes= 0.00D+00
 Harris functional with IExCor= 1009 and IRadAn=       5 diagonalized for initial guess.
 HarFok:  IExCor= 1009 AccDes= 0.00D+00 IRadAn=         5 IDoV= 1 UseB2=F ITyADJ=14
 ICtDFT=  3500011 ScaDFX=  1.000000  1.000000  1.000000  1.000000
 FoFCou: FMM=F IPFlag=           0 FMFlag=      100000 FMFlg1=           0
         NFxFlg=           0 DoJE=T BraDBF=F KetDBF=T FulRan=T
         wScrn=  0.000000 ICntrl=       500 IOpCl=  0 I1Cent=   200000004 NGrid=           0
         NMat0=    1 NMatS0=      1 NMatT0=    0 NMatD0=    1 NMtDS0=    0 NMtDT0=    0
 Petite list used in FoFCou.
 Requested convergence on RMS density matrix=1.00D-08 within 128 cycles.
 Requested convergence on MAX density matrix=1.00D-06.
 Requested convergence on             energy=1.00D-06.
 No special actions if energy rises.
 SCF Done:  E(RM062X) =  -1367.31163634     A.U. after   13 cycles
            NFock= 13  Conv=0.25D-08     -V/T= 2.0001
 Calling FoFJK, ICntrl=      2127 FMM=F ISym2X=1 I1Cent= 0 IOpClX= 0 NMat=1 NMatS=1 NMatT=0.
 ***** Axes restored to original set *****
 -------------------------------------------------------------------
 Center     Atomic                   Forces (Hartrees/Bohr)
 Number     Number              X              Y              Z
 -------------------------------------------------------------------
      1        6          -0.051200544    0.000000000   -0.048239622
      2        6          -0.035955903    0.000000000    0.013682087
      3        6           0.009269370   -0.000000000    0.016734490
      4        6           0.018009214   -0.000000000    0.012444280
      5        6           0.016746142    0.000000000   -0.004013846
      6        6          -0.019399302    0.000000000   -0.027252554
      7        9           0.022775007   -0.000000000    0.013328405
      8        1          -0.048696731    0.000000000    0.025800243
      9        1          -0.001301988   -0.000000000    0.054381594
     10        1           0.047324685   -0.000000000    0.027350106
     11        1           0.046493029   -0.000000000   -0.028389032
     12        1          -0.002314511    0.000000000   -0.054807379
     13        8           0.005452488   -0.000000000    0.003105150
     14        6           0.054863001    0.000000000    0.032003935
     15        1          -0.030238615    0.053199923   -0.017600418
     16        1          -0.030238615   -0.053199923   -0.017600418
     17        1          -0.063393504   -0.407894093   -0.036607198
     18       17           0.062600139    0.406261499    0.036143688
     19        1          -0.063393504    0.407894093   -0.036607198
     20       17           0.062600139   -0.406261499    0.036143688
 -------------------------------------------------------------------
 Cartesian Forces:  Max     0.407894093 RMS     0.109586222
 -----------------------------------------------------------------------------------------------
                       Internal Coordinate Forces (Hartree/Bohr or radian)
  Cent   Atom   N1       Length/X         N2         Alpha/Y        N3         Beta/Z          J
 -----------------------------------------------------------------------------------------------
      1  C 
      2  C        1   0.034672(     1)
      3  C        2   0.096398(     2)      1   0.073685(    20)
      4  C        3   0.129866(     3)      2   0.223029(    21)      1  -0.000000(    38)     0
      5  C        4   0.115721(     4)      3   0.252405(    22)      2   0.000000(    39)     0
      6  C        5   0.061103(     5)      4   0.149922(    23)      3   0.000000(    40)     0
      7  F        1  -0.024364(     6)      2  -0.000386(    24)      3  -0.000000(    41)     0
      8  H        2   0.055073(     7)      3   0.003859(    25)      4   0.000000(    42)     0
      9  H        3   0.054382(     8)      4   0.002506(    26)      5  -0.000000(    43)     0
     10  H        4   0.054659(     9)      5   0.000045(    27)      6  -0.000000(    44)     0
     11  H        5   0.054459(    10)      6  -0.002577(    28)      1  -0.000000(    45)     0
     12  H        6   0.054823(    11)      1  -0.003679(    29)      2   0.000000(    46)     0
     13  O        7   0.000186(    12)      1   0.000008(    30)      3  -0.000000(    47)     0
     14  C       13   0.006460(    13)      1   0.000101(    31)      2  -0.000000(    48)     0
     15  H       14   0.063566(    14)      1   0.007141(    32)      2   0.000115(    49)     0
     16  H       14   0.063566(    15)      1   0.007141(    33)      2  -0.000115(    50)     0
     17  H        7  -0.001448(    16)      1   0.003956(    34)      2   0.000018(    51)     0
     18  Cl      17   0.412642(    17)      7  -0.001208(    35)      1  -0.000001(    52)     0
     19  H        7  -0.001448(    18)      1   0.003956(    36)      2  -0.000018(    53)     0
     20  Cl      19   0.412642(    19)      7  -0.001208(    37)      1   0.000001(    54)     0
 -----------------------------------------------------------------------------------------------
 Internal  Forces:  Max     0.412641660 RMS     0.100943261

 GradGradGradGradGradGradGradGradGradGradGradGradGradGradGradGradGradGrad
 Berny optimization.
 Search for a local minimum.
 Step number   2 out of a maximum of   29
 All quantities printed in internal units (Hartrees-Bohrs-Radians)
 Update second derivatives using D2CorN and points    1    2
 DE= -2.60D-01 DEPred=-2.80D-01 R= 9.28D-01
 TightC=F SS=  1.41D+00  RLast= 3.00D-01 DXNew= 5.0454D-01 9.0000D-01
 Trust test= 9.28D-01 RLast= 3.00D-01 DXMaxT set to 5.05D-01
 The second derivative matrix:
                          d1        d2        d3        d4        d5
           d1           0.95469
           d2          -0.05266   0.95594
           d3          -0.33273   0.34027   1.34995
           d4          -0.27848   0.05831   0.34099   0.95697
           d5           0.05714  -0.27811  -0.33163  -0.05145   0.95598
           d6           0.00032   0.00048   0.00035   0.00059   0.00048
           d7           0.00142   0.00185   0.00282   0.00214   0.00187
           d8           0.00142   0.00185   0.00281   0.00214   0.00186
           d9           0.00143   0.00187   0.00284   0.00217   0.00189
           d10          0.00140   0.00183   0.00278   0.00212   0.00184
           d11          0.00146   0.00192   0.00289   0.00222   0.00193
           d12          0.00002   0.00002   0.00003   0.00003   0.00002
           d13          0.00050   0.00068   0.00088   0.00080   0.00068
           d14          0.00154   0.00200   0.00309   0.00231   0.00202
           d15          0.00154   0.00200   0.00309   0.00231   0.00202
           d16          0.00005   0.00007   0.00007   0.00008   0.00007
           d17          0.01795   0.02423   0.03204   0.02846   0.02431
           d18          0.00005   0.00007   0.00007   0.00008   0.00007
           d19          0.01795   0.02423   0.03204   0.02846   0.02431
                          d6        d7        d8        d9        d10
           d6           0.45571
           d7           0.00047   0.47800
           d8           0.00046   0.00112   0.47800
           d9           0.00046   0.00114   0.00114   0.47804
           d10          0.00047   0.00110   0.00110   0.00112   0.47797
           d11          0.00045   0.00117   0.00117   0.00118   0.00115
           d12         -0.00000   0.00002   0.00002   0.00002   0.00002
           d13         -0.00008   0.00048   0.00048   0.00048   0.00048
           d14          0.00057   0.00119   0.00119   0.00121   0.00118
           d15          0.00057   0.00119   0.00119   0.00121   0.00118
           d16         -0.00004   0.00006   0.00006   0.00006   0.00006
           d17         -0.00149   0.01685   0.01673   0.01689   0.01665
           d18         -0.00004   0.00006   0.00006   0.00006   0.00006
           d19         -0.00149   0.01685   0.01673   0.01689   0.01665
                          d11       d12       d13       d14       d15
           d11          0.47810
           d12          0.00002   0.02330
           d13          0.00049   0.00000   1.04833
           d14          0.00125   0.00002   0.00054   0.47814
           d15          0.00125   0.00002   0.00054   0.00126   0.47814
           d16          0.00006   0.00000  -0.00000   0.00007   0.00007
           d17          0.01711   0.00015   0.00380   0.01883   0.01883
           d18          0.00006   0.00000  -0.00000   0.00007   0.00007
           d19          0.01711   0.00015   0.00380   0.01883   0.01883
                          d16       d17       d18       d19
           d16          0.02720
           d17          0.00005   1.68540
           d18         -0.00000   0.00005   0.02720
           d19          0.00005   0.14723   0.00005   1.68540
 ITU=  1  0
 Linear search step of   0.600 exceeds DXMaxT=   0.505 but not scaled.
 Quartic linear search produced a step of  2.00000.
 Variable       Old X    -DE/DX   Delta X   Delta X   Delta X     New X
                                 (Linear)    (Quad)   (Total)
    d1        2.49011   0.03467   0.06693   0.00000   0.06693   2.55705
    d2        2.50290   0.09640   0.09252   0.00000   0.09252   2.59543
    d3        2.51154   0.12987   0.10980   0.00000   0.10980   2.62134
    d4        2.51153   0.11572   0.10978   0.00000   0.10978   2.62131
    d5        2.50289   0.06110   0.09249   0.00000   0.09249   2.59538
    d6        2.63282  -0.02436  -0.02559   0.00000  -0.02559   2.60724
    d7        1.92479   0.05507   0.07013   0.00000   0.07013   1.99493
    d8        1.92440   0.05438   0.06934   0.00000   0.06934   1.99374
    d9        1.92461   0.05466   0.06976   0.00000   0.06976   1.99437
   d10        1.92440   0.05446   0.06934   0.00000   0.06934   1.99374
   d11        1.92479   0.05482   0.07013   0.00000   0.07013   1.99493
   d12        5.29144   0.00019   0.00041   0.00000   0.00041   5.29184
   d13        2.27165   0.00646   0.00796   0.00000   0.00796   2.27961
   d14        1.92991   0.06357   0.08036   0.00000   0.08036   2.01027
   d15        1.92991   0.06357   0.08036   0.00000   0.08036   2.01027
   d16        4.34551  -0.00145  -0.00171   0.00000  -0.00171   4.34380
   d17        1.88661   0.41264   0.37171   0.00000   0.37171   2.25832
   d18        4.34551  -0.00145  -0.00171   0.00000  -0.00171   4.34380
   d19        1.88661   0.41264   0.37171   0.00000   0.37171   2.25832
         Item               Value     Threshold  Converged?
 Maximum Force            0.412642     0.000450     NO 
 RMS     Force            0.146665     0.000300     NO 
 Maximum Displacement     0.371711     0.001800     NO 
 RMS     Displacement     0.137649     0.001200     NO 
 Predicted change in Energy=-8.016402D-02
 GradGradGradGradGradGradGradGradGradGradGradGradGradGradGradGradGradGrad

 ---------------------------------------------------------------------------------------------------
                            Z-MATRIX (ANGSTROMS AND DEGREES)
   CD    Cent   Atom    N1       Length/X        N2       Alpha/Y        N3        Beta/Z          J
 ---------------------------------------------------------------------------------------------------
      1      1  C 
      2      2  C        1   1.353130(     1)
      3      3  C        2   1.373440(     2)      1  120.000(    20)
      4      4  C        3   1.387152(     3)      2  120.000(    21)      1    0.000(    38)      0
      5      5  C        4   1.387140(     4)      3  120.000(    22)      2    0.000(    39)      0
      6      6  C        5   1.373417(     5)      4  120.000(    23)      3    0.000(    40)      0
      7      7  F        1   1.379691(     6)      2  120.000(    24)      3  180.000(    41)      0
      8      8  H        2   1.055669(     7)      3  120.000(    25)      4  180.000(    42)      0
      9      9  H        3   1.055042(     8)      4  120.000(    26)      5  180.000(    43)      0
     10     10  H        4   1.055373(     9)      5  120.000(    27)      6  180.000(    44)      0
     11     11  H        5   1.055042(    10)      6  120.000(    28)      1  180.000(    45)      0
     12     12  H        6   1.055669(    11)      1  120.000(    29)      2  180.000(    46)      0
     13     13  O        7   2.800322(    12)      1  179.900(    30)      3  180.000(    47)      0
     14     14  C       13   1.206320(    13)      1  179.900(    31)      2  180.000(    48)      0
     15     15  H       14   1.063787(    14)      1  120.000(    32)      2   90.000(    49)      0
     16     16  H       14   1.063787(    15)      1  120.000(    33)      2  -90.000(    50)      0
     17     17  H        7   2.298642(    16)      1  100.000(    34)      2   90.000(    51)      0
     18     18  Cl      17   1.195051(    17)      7  160.000(    35)      1    0.000(    52)      0
     19     19  H        7   2.298642(    18)      1  100.000(    36)      2  -90.000(    53)      0
     20     20  Cl      19   1.195051(    19)      7  160.000(    37)      1    0.000(    54)      0
 ---------------------------------------------------------------------------------------------------
                         Z-Matrix orientation:                         
 ---------------------------------------------------------------------
 Center     Atomic      Atomic             Coordinates (Angstroms)
 Number     Number       Type             X           Y           Z
 ---------------------------------------------------------------------
      1          6           0        0.000000    0.000000    0.000000
      2          6           0        0.000000    0.000000    1.353130
      3          6           0        1.189434    0.000000    2.039851
      4          6           0        2.390743    0.000000    1.346275
      5          6           0        2.390743    0.000000   -0.040866
      6          6           0        1.201329    0.000000   -0.727574
      7          9           0       -1.194848   -0.000000   -0.689846
      8          1           0       -0.914237   -0.000000    1.880965
      9          1           0        1.189434   -0.000000    3.094892
     10          1           0        3.304723   -0.000000    1.873961
     11          1           0        3.304436   -0.000000   -0.568387
     12          1           0        1.179206   -0.000000   -1.783011
     13          8           0       -3.617550   -0.000000   -2.094237
     14          6           0       -4.660492   -0.000000   -2.700439
     15          1           0       -5.120710    0.921267   -2.967105
     16          1           0       -5.120710   -0.921267   -2.967105
     17          1           0       -1.540526    2.263720   -0.889423
     18         17           0       -1.360810    3.440616   -0.785664
     19          1           0       -1.540526   -2.263720   -0.889423
     20         17           0       -1.360810   -3.440616   -0.785664
 ---------------------------------------------------------------------
                    Distance matrix (angstroms):
                    1          2          3          4          5
     1  C    0.000000
     2  C    1.353130   0.000000
     3  C    2.361301   1.373440   0.000000
     4  C    2.743740   2.390753   1.387152   0.000000
     5  C    2.391092   2.767468   2.402607   1.387140   0.000000
     6  C    1.404477   2.402607   2.767450   2.390722   1.373417
     7  F    1.379691   2.366730   3.624368   4.123378   3.643849
     8  H    2.091377   1.055669   2.109662   3.347952   3.823130
     9  H    3.315586   2.109144   1.055042   2.121511   3.357994
    10  H    3.799069   3.345513   2.121784   1.055373   2.121773
    11  H    3.352963   3.822503   3.357995   2.121500   1.055042
    12  H    2.137676   3.350509   3.822876   3.355630   2.122002
    13  O    4.180012   4.997101   6.340172   6.923634   6.349482
    14  C    5.386330   6.176699   7.529408   8.129933   7.536129
    15  H    5.989500   6.762753   8.107789   8.710677   8.113786
    16  H    5.989500   6.762753   8.107789   8.710677   8.113786
    17  H    2.879015   3.539307   4.599756   5.057435   4.615123
    18  Cl   3.782448   4.273650   5.130801   5.518800   5.144581
    19  H    2.879015   3.539307   4.599756   5.057435   4.615123
    20  Cl   3.782448   4.273650   5.130801   5.518800   5.144581
                    6          7          8          9         10
     6  C    0.000000
     7  F    2.396474   0.000000
     8  H    3.358585   2.586080   0.000000
     9  H    3.822485   4.473147   2.428796   0.000000
    10  H    3.345482   5.178730   4.218966   2.442360   0.000000
    11  H    2.109123   4.500923   4.878168   4.229994   2.442348
    12  H    1.055669   2.613646   4.219861   4.877915   4.229807
    13  O    5.008929   2.800322   4.807301   7.073483   7.979002
    14  C    6.184912   4.006641   5.918082   8.234531   9.185303
    15  H    6.769964   4.631094   6.484360   8.798548   9.760767
    16  H    6.769964   4.631094   6.484360   8.798548   9.760767
    17  H    3.559269   2.298642   3.632041   5.334031   6.019731
    18  Cl   4.290195   3.445949   4.375863   5.779299   6.377981
    19  H    3.559269   2.298642   3.632041   5.334031   6.019731
    20  Cl   4.290195   3.445949   4.375863   5.779299   6.377981
                   11         12         13         14         15
    11  H    0.000000
    12  H    2.447839   0.000000
    13  O    7.088167   4.806843   0.000000
    14  C    8.245346   5.911323   1.206320   0.000000
    15  H    8.808272   6.476091   1.967261   1.063787   0.000000
    16  H    8.808272   6.476091   1.967261   1.063787   1.842534
    17  H    5.357346   3.649640   3.300006   4.258919   4.351627
    18  Cl   5.800825   4.391381   4.317763   5.137325   5.024206
    19  H    5.357346   3.649640   3.300006   4.258919   5.222894
    20  Cl   5.800825   4.391381   4.317763   5.137325   6.158048
                   16         17         18         19         20
    16  H    0.000000
    17  H    5.222894   0.000000
    18  Cl   6.158048   1.195051   0.000000
    19  H    4.351627   4.527441   5.708110   0.000000
    20  Cl   5.024206   5.708110   6.881232   1.195051   0.000000
 Stoichiometry    C7H9Cl2FO
 Framework group  CS[SG(C7H5FO),X(H4Cl2)]
 Deg. of freedom    34
 Full point group                 CS      NOp   2
 Largest Abelian subgroup         CS      NOp   2
 Largest concise Abelian subgroup CS      NOp   2
                         Standard orientation:                         
 ---------------------------------------------------------------------
 Center     Atomic      Atomic             Coordinates (Angstroms)
 Number     Number       Type             X           Y           Z
 ---------------------------------------------------------------------
      1          6           0       -0.011057   -0.868446    0.000000
      2          6           0       -1.182902   -1.545011    0.000000
      3          6           0       -1.182902   -2.918452    0.000000
[...]
    11  H    0.000000
    12  H    2.500333   0.000000
    13  O    6.997239   4.676112   0.000000
    14  C    8.146727   5.768271   1.200048   0.000000
    15  H    8.732271   6.355949   1.995234   1.103171   0.000000
    16  H    8.732271   6.355949   1.995234   1.103171   1.910748
    17  H    5.233563   3.461105   3.086839   4.071460   4.223872
    18  Cl   5.676352   4.233962   4.163261   4.991672   4.899807
    19  H    5.233563   3.461105   3.086839   4.071460   5.054655
    20  Cl   5.676352   4.233962   4.163261   4.991672   6.046081
                   16         17         18         19         20
    16  H    0.000000
    17  H    5.054655   0.000000
    18  Cl   6.046081   1.285667   0.000000
    19  H    4.223872   4.034257   5.305092   0.000000
    20  Cl   4.899807   5.305092   6.566527   1.285667   0.000000
 Stoichiometry    C7H9Cl2FO
 Framework group  CS[SG(C7H5FO),X(H4Cl2)]
 Deg. of freedom    34
 Full point group                 CS      NOp   2
 Largest Abelian subgroup         CS      NOp   2
 Largest concise Abelian subgroup CS      NOp   2
                         Standard orientation:                         
 ---------------------------------------------------------------------
 Center     Atomic      Atomic             Coordinates (Angstroms)
 Number     Number       Type             X           Y           Z
 ---------------------------------------------------------------------
      1          6           0       -0.004592   -0.813713   -0.000000
      2          6           0       -1.197439   -1.502403   -0.000000
      3          6           0       -1.197439   -2.884674   -0.000000
      4          6           0        0.003320   -3.577933   -0.000000
      5          6           0        1.211140   -2.880597   -0.000000
      6          6           0        1.211140   -1.482449    0.000000
      7          9           0       -0.004592    0.545046    0.000000
      8          1           0       -2.136142   -0.960443   -0.000000
      9          1           0       -2.135048   -3.426003   -0.000000
     10          1           0        0.003320   -4.660964   -0.000000
     11          1           0        2.148666   -3.421879    0.000000
     12          1           0        2.137767   -0.921569    0.000000
     13          8           0        0.000107    3.237329    0.000000
     14          6           0        0.003593    4.437372    0.000000
     15          1           0        0.004453    4.988957    0.955374
     16          1           0        0.004453    4.988957   -0.955374
     17          1           0       -0.004592    0.900720    2.017128
     18         17           0       -0.004592    0.677466    3.283264
     19          1           0       -0.004592    0.900720   -2.017128
     20         17           0       -0.004592    0.677466   -3.283264
 ---------------------------------------------------------------------
 Rotational constants (GHZ):           0.5931483           0.4844335           0.2939749

 **********************************************************************

            Population analysis using the SCF Density.

 **********************************************************************

 Orbital symmetries:
       Occupied  (A") (A') (A') (A') (A') (A') (A') (A') (A') (A')
                 (A') (A") (A') (A') (A") (A') (A") (A') (A") (A')
                 (A') (A') (A") (A') (A') (A') (A') (A') (A') (A')
                 (A") (A') (A") (A') (A') (A') (A') (A') (A") (A')
                 (A') (A") (A') (A') (A") (A') (A") (A') (A") (A")
                 (A")
       Virtual   (A') (A') (A') (A") (A") (A') (A') (A") (A') (A')
                 (A") (A') (A') (A') (A") (A") (A') (A') (A") (A')
                 (A') (A') (A") (A") (A') (A') (A") (A') (A') (A')
                 (A") (A') (A") (A') (A") (A') (A') (A') (A') (A")
                 (A') (A") (A') (A') (A') (A") (A') (A') (A") (A')
                 (A') (A") (A') (A') (A') (A') (A') (A') (A") (A')
                 (A') (A') (A') (A') (A') (A") (A') (A') (A') (A')
                 (A') (A") (A") (A') (A') (A") (A') (A') (A') (A')
                 (A") (A') (A') (A") (A') (A') (A') (A") (A") (A')
                 (A') (A") (A") (A") (A') (A") (A') (A") (A') (A')
                 (A') (A') (A') (A") (A') (A') (A') (A') (A') (A")
                 (A') (A') (A') (A') (A') (A") (A") (A') (A') (A")
                 (A') (A") (A') (A") (A') (A") (A') (A') (A") (A")
                 (A') (A') (A") (A") (A") (A') (A") (A') (A') (A')
                 (A") (A') (A') (A") (A') (A') (A") (A') (A') (A")
                 (A") (A") (A') (A') (A') (A') (A') (A") (A') (A")
                 (A') (A") (A') (A") (A') (A') (A') (A") (A') (A")
                 (A") (A') (A') (A') (A") (A') (A') (A") (A') (A')
                 (A') (A') (A") (A') (A") (A") (A') (A") (A") (A')
                 (A') (A") (A') (A") (A') (A') (A") (A') (A') (A')
                 (A") (A') (A') (A') (A') (A') (A') (A') (A") (A')
                 (A') (A") (A') (A") (A') (A") (A") (A") (A') (A')
                 (A") (A') (A') (A') (A') (A') (A') (A') (A') (A")
                 (A') (A") (A') (A") (A') (A') (A") (A') (A') (A')
                 (A') (A') (A') (A') (A') (A") (A') (A') (A") (A')
                 (A') (A") (A') (A') (A') (A') (A') (A') (A') (A")
                 (A') (A") (A') (A") (A') (A') (A') (A') (A")
 The electronic state is 1-A'.
 Alpha  occ. eigenvalues -- -102.66311-102.66311 -25.27947 -19.65216 -10.64711
 Alpha  occ. eigenvalues --  -10.64328 -10.56516 -10.56440 -10.56263 -10.56180
 Alpha  occ. eigenvalues --  -10.55715  -9.80630  -9.80629  -7.53120  -7.53120
 Alpha  occ. eigenvalues --   -7.52491  -7.52491  -7.52489  -7.52489  -1.39617
 Alpha  occ. eigenvalues --   -1.20055  -0.98503  -0.92642  -0.92596  -0.86848
 Alpha  occ. eigenvalues --   -0.86385  -0.73335  -0.72412  -0.71855  -0.64686
 Alpha  occ. eigenvalues --   -0.60724  -0.59252  -0.59243  -0.58755  -0.54431
 Alpha  occ. eigenvalues --   -0.52967  -0.51888  -0.51257  -0.50783  -0.50069
 Alpha  occ. eigenvalues --   -0.48409  -0.45235  -0.44494  -0.42310  -0.38324
 Alpha  occ. eigenvalues --   -0.38306  -0.38303  -0.38301  -0.35493  -0.32802
 Alpha  occ. eigenvalues --   -0.31918
 Alpha virt. eigenvalues --   -0.01690  -0.00471   0.00056   0.00088   0.00862
 Alpha virt. eigenvalues --    0.00962   0.01592   0.02026   0.02971   0.03151
 Alpha virt. eigenvalues --    0.04173   0.05235   0.06387   0.06978   0.07056
 Alpha virt. eigenvalues --    0.08007   0.08183   0.08692   0.09438   0.10603
 Alpha virt. eigenvalues --    0.10834   0.11120   0.11402   0.11780   0.11830
 Alpha virt. eigenvalues --    0.12244   0.12343   0.12730   0.13233   0.13290
 Alpha virt. eigenvalues --    0.13858   0.14000   0.15242   0.15828   0.15904
 Alpha virt. eigenvalues --    0.16101   0.16250   0.17039   0.17165   0.17215
 Alpha virt. eigenvalues --    0.17853   0.18828   0.19031   0.19754   0.21380
 Alpha virt. eigenvalues --    0.21910   0.22981   0.23974   0.24480   0.24950
 Alpha virt. eigenvalues --    0.25458   0.26095   0.26159   0.28627   0.29346
 Alpha virt. eigenvalues --    0.30416   0.31335   0.31465   0.32671   0.32705
 Alpha virt. eigenvalues --    0.32911   0.35628   0.37894   0.38276   0.39772
 Alpha virt. eigenvalues --    0.41564   0.41934   0.43045   0.43150   0.45667
 Alpha virt. eigenvalues --    0.48441   0.49302   0.49315   0.50399   0.51003
 Alpha virt. eigenvalues --    0.53529   0.53759   0.53968   0.55007   0.56357
 Alpha virt. eigenvalues --    0.56636   0.57294   0.57897   0.58931   0.59474
 Alpha virt. eigenvalues --    0.59551   0.60070   0.60511   0.60753   0.61967
 Alpha virt. eigenvalues --    0.63193   0.65038   0.65452   0.68071   0.69807
 Alpha virt. eigenvalues --    0.70461   0.72327   0.73337   0.73908   0.75684
 Alpha virt. eigenvalues --    0.76097   0.77473   0.81111   0.82798   0.84010
 Alpha virt. eigenvalues --    0.84054   0.86845   0.87993   0.88677   0.90716
 Alpha virt. eigenvalues --    0.90859   0.91610   0.92939   0.93341   0.93956
 Alpha virt. eigenvalues --    0.95447   0.96282   0.99736   1.00373   1.00435
 Alpha virt. eigenvalues --    1.01888   1.04190   1.05228   1.05292   1.05350
 Alpha virt. eigenvalues --    1.07296   1.07575   1.08812   1.11808   1.14316
 Alpha virt. eigenvalues --    1.16750   1.17178   1.17746   1.20776   1.23539
 Alpha virt. eigenvalues --    1.29257   1.31238   1.32740   1.33340   1.43058
 Alpha virt. eigenvalues --    1.43927   1.47838   1.48994   1.51686   1.52120
 Alpha virt. eigenvalues --    1.52126   1.53452   1.55722   1.56160   1.58938
 Alpha virt. eigenvalues --    1.59811   1.60580   1.61176   1.61755   1.64376
 Alpha virt. eigenvalues --    1.67934   1.68437   1.70251   1.70673   1.71386
 Alpha virt. eigenvalues --    1.76506   1.76732   1.77625   1.79349   1.82604
 Alpha virt. eigenvalues --    1.85738   1.86636   1.88685   1.91640   1.94371
 Alpha virt. eigenvalues --    1.95421   1.96071   1.98604   1.99833   2.00789
 Alpha virt. eigenvalues --    2.04872   2.06850   2.09682   2.10272   2.16225
 Alpha virt. eigenvalues --    2.20100   2.25500   2.25767   2.29790   2.29938
 Alpha virt. eigenvalues --    2.31082   2.32491   2.34871   2.35104   2.36394
 Alpha virt. eigenvalues --    2.43904   2.44093   2.45804   2.47589   2.48191
 Alpha virt. eigenvalues --    2.48902   2.52123   2.52495   2.52589   2.62999
 Alpha virt. eigenvalues --    2.64350   2.65782   2.67314   2.68833   2.72131
 Alpha virt. eigenvalues --    2.72543   2.74147   2.75041   2.75787   2.77124
 Alpha virt. eigenvalues --    2.79388   2.84440   2.85186   2.86798   2.89738
 Alpha virt. eigenvalues --    2.93978   2.94330   2.94451   2.97874   2.99423
 Alpha virt. eigenvalues --    3.14307   3.18709   3.26813   3.38833   3.39334
 Alpha virt. eigenvalues --    3.43291   3.48527   3.52868   3.56074   3.56648
 Alpha virt. eigenvalues --    3.66864   3.73264   3.79143   3.85728   3.93646
 Alpha virt. eigenvalues --    4.02475   4.05400   4.06598   4.08863   4.15816
 Alpha virt. eigenvalues --    4.19193   4.21696   4.85566   4.94630   5.10587
 Alpha virt. eigenvalues --    5.22047   5.80137   6.59371   6.59673   6.90274
 Alpha virt. eigenvalues --    9.97460  10.03016  23.69217  23.99489  24.02004
 Alpha virt. eigenvalues --   24.04975  24.15562  24.16881  24.27349  25.90188
 Alpha virt. eigenvalues --   25.96063  26.01546  26.06684  26.20675  26.23385
 Alpha virt. eigenvalues --   50.05122  66.94977 216.07248 216.13942
          Condensed to atoms (all electrons):
               1          2          3          4          5          6
     1  C   10.760550  -1.138575  -1.587637  -0.028432  -1.380116  -0.802472
     2  C   -1.138575  11.041355   1.600683  -0.539552  -0.284787  -4.845695
     3  C   -1.587637   1.600683   6.136446   0.352217  -0.062478  -0.474725
     4  C   -0.028432  -0.539552   0.352217   6.318124   0.320106  -0.433846
     5  C   -1.380116  -0.284787  -0.062478   0.320106   5.987771   1.385770
     6  C   -0.802472  -4.845695  -0.474725  -0.433846   1.385770  11.004641
     7  F    0.474793  -0.245326  -0.037613  -0.002104  -0.033823  -0.236359
     8  H   -0.038869   0.416157  -0.076905  -0.013158   0.017727   0.012589
     9  H    0.014804  -0.024357   0.364403  -0.064687   0.001008   0.024783
    10  H    0.021640  -0.006783  -0.059876   0.440627  -0.056916  -0.004207
    11  H    0.017082   0.027064   0.000386  -0.064516   0.362691  -0.027642
    12  H   -0.043224   0.010616   0.018012  -0.011373  -0.071032   0.414294
    13  O    0.065527  -0.021870  -0.000964  -0.000992  -0.000615  -0.020421
    14  C   -0.001782   0.000158   0.000778  -0.000184   0.000839   0.001515
    15  H   -0.000973   0.000054  -0.000007   0.000051  -0.000015  -0.000002
    16  H   -0.000973   0.000054  -0.000007   0.000051  -0.000015  -0.000002
    17  H    0.078962  -0.023070  -0.026711   0.021258  -0.026612  -0.030434
    18  Cl   0.018976   0.000055   0.006176  -0.014171   0.006703   0.004178
    19  H    0.078962  -0.023070  -0.026711   0.021258  -0.026612  -0.030434
    20  Cl   0.018976   0.000055   0.006176  -0.014171   0.006703   0.004178
               7          8          9         10         11         12
     1  C    0.474793  -0.038869   0.014804   0.021640   0.017082  -0.043224
     2  C   -0.245326   0.416157  -0.024357  -0.006783   0.027064   0.010616
     3  C   -0.037613  -0.076905   0.364403  -0.059876   0.000386   0.018012
     4  C   -0.002104  -0.013158  -0.064687   0.440627  -0.064516  -0.011373
     5  C   -0.033823   0.017727   0.001008  -0.056916   0.362691  -0.071032
     6  C   -0.236359   0.012589   0.024783  -0.004207  -0.027642   0.414294
     7  F    9.229858  -0.013595  -0.001046   0.000906  -0.001168  -0.013259
     8  H   -0.013595   0.496195  -0.007656   0.001045   0.001233  -0.000314
     9  H   -0.001046  -0.007656   0.478608  -0.007681   0.000675   0.001219
    10  H    0.000906   0.001045  -0.007681   0.495551  -0.007313   0.000974
    11  H   -0.001168   0.001233   0.000675  -0.007313   0.477287  -0.006750
    12  H   -0.013259  -0.000314   0.001219   0.000974  -0.006750   0.493860
    13  O    0.006087   0.000941   0.000050   0.000007   0.000047   0.000973
    14  C   -0.001567   0.000201  -0.000006   0.000006  -0.000008   0.000223
    15  H   -0.000067  -0.000048  -0.000004  -0.000001  -0.000004  -0.000049
    16  H   -0.000067  -0.000048  -0.000004  -0.000001  -0.000004  -0.000049
    17  H   -0.009742  -0.003096  -0.000201  -0.000323  -0.000147  -0.003209
    18  Cl   0.000608   0.000717   0.000367   0.000237   0.000335   0.000825
    19  H   -0.009742  -0.003096  -0.000201  -0.000323  -0.000147  -0.003209
    20  Cl   0.000608   0.000717   0.000367   0.000237   0.000335   0.000825
              13         14         15         16         17         18
     1  C    0.065527  -0.001782  -0.000973  -0.000973   0.078962   0.018976
     2  C   -0.021870   0.000158   0.000054   0.000054  -0.023070   0.000055
     3  C   -0.000964   0.000778  -0.000007  -0.000007  -0.026711   0.006176
     4  C   -0.000992  -0.000184   0.000051   0.000051   0.021258  -0.014171
     5  C   -0.000615   0.000839  -0.000015  -0.000015  -0.026612   0.006703
     6  C   -0.020421   0.001515  -0.000002  -0.000002  -0.030434   0.004178
     7  F    0.006087  -0.001567  -0.000067  -0.000067  -0.009742   0.000608
     8  H    0.000941   0.000201  -0.000048  -0.000048  -0.003096   0.000717
     9  H    0.000050  -0.000006  -0.000004  -0.000004  -0.000201   0.000367
    10  H    0.000007   0.000006  -0.000001  -0.000001  -0.000323   0.000237
    11  H    0.000047  -0.000008  -0.000004  -0.000004  -0.000147   0.000335
    12  H    0.000973   0.000223  -0.000049  -0.000049  -0.003209   0.000825
    13  O    8.147418   0.227989  -0.091757  -0.091757   0.006170  -0.003635
    14  C    0.227989   4.966085   0.396474   0.396474  -0.005871  -0.001444
    15  H   -0.091757   0.396474   0.693665  -0.116610   0.000137   0.001978
    16  H   -0.091757   0.396474  -0.116610   0.693665   0.001010  -0.000468
    17  H    0.006170  -0.005871   0.000137   0.001010   0.657621   0.252486
    18  Cl  -0.003635  -0.001444   0.001978  -0.000468   0.252486  16.830089
    19  H    0.006170  -0.005871   0.001010   0.000137   0.003745  -0.000748
    20  Cl  -0.003635  -0.001444  -0.000468   0.001978  -0.000748   0.000152
              19         20
     1  C    0.078962   0.018976
     2  C   -0.023070   0.000055
     3  C   -0.026711   0.006176
     4  C    0.021258  -0.014171
     5  C   -0.026612   0.006703
     6  C   -0.030434   0.004178
     7  F   -0.009742   0.000608
     8  H   -0.003096   0.000717
     9  H   -0.000201   0.000367
    10  H   -0.000323   0.000237
    11  H   -0.000147   0.000335
    12  H   -0.003209   0.000825
    13  O    0.006170  -0.003635
    14  C   -0.005871  -0.001444
    15  H    0.001010  -0.000468
    16  H    0.000137   0.001978
    17  H    0.003745  -0.000748
    18  Cl  -0.000748   0.000152
    19  H    0.657621   0.252486
    20  Cl   0.252486  16.830089
 Mulliken charges:
               1
     1  C   -0.527220
     2  C    0.056836
     3  C   -0.131642
     4  C   -0.286507
     5  C   -0.146297
     6  C    0.054291
     7  F   -0.107384
     8  H    0.209264
     9  H    0.219561
    10  H    0.182193
    11  H    0.220563
    12  H    0.210646
    13  O   -0.225733
    14  C    0.027436
    15  H    0.116637
    16  H    0.116637
    17  H    0.108776
    18  Cl  -0.103418
    19  H    0.108776
    20  Cl  -0.103418
 Sum of Mulliken charges =  -0.00000
 Mulliken charges with hydrogens summed into heavy atoms:
               1
     1  C   -0.527220
     2  C    0.266100
     3  C    0.087919
     4  C   -0.104313
     5  C    0.074266
     6  C    0.264936
     7  F   -0.107384
    13  O   -0.225733
    14  C    0.260711
    18  Cl   0.005358
    20  Cl   0.005358
 Electronic spatial extent (au):  <R**2>=           3577.0957
 Charge=             -0.0000 electrons
 Dipole moment (field-independent basis, Debye):
    X=              0.0009    Y=              0.8589    Z=              0.0000  Tot=              0.8589
 Quadrupole moment (field-independent basis, Debye-Ang):
   XX=            -73.8173   YY=            -51.8533   ZZ=            -96.5229
   XY=              0.1165   XZ=              0.0000   YZ=             -0.0000
 Traceless Quadrupole moment (field-independent basis, Debye-Ang):
   XX=              0.2472   YY=             22.2112   ZZ=            -22.4584
   XY=              0.1165   XZ=              0.0000   YZ=             -0.0000
 Octapole moment (field-independent basis, Debye-Ang**2):
  XXX=             -0.0757  YYY=            106.2586  ZZZ=              0.0000  XYY=             -0.0891
  XXY=             -3.2332  XXZ=             -0.0000  XZZ=             -0.0675  YZZ=             11.2113
  YYZ=             -0.0000  XYZ=              0.0000
 Hexadecapole moment (field-independent basis, Debye-Ang**3):
 XXXX=           -303.6690 YYYY=          -1802.8848 ZZZZ=          -1884.1837 XXXY=              0.8675
 XXXZ=              0.0000 YYYX=              1.6107 YYYZ=             -0.0000 ZZZX=              0.0000
 ZZZY=              0.0000 XXYY=           -449.5181 XXZZ=           -378.4007 YYZZ=           -764.6138
 XXYZ=              0.0000 YYXZ=              0.0000 ZZXY=              0.4672
 N-N= 7.196336199085D+02 E-N=-4.674995486648D+03  KE= 1.364039649309D+03
 Symmetry A'   KE= 8.847683328559D+02
 Symmetry A"   KE= 4.792713164529D+02
 1\1\GINC-R820\POpt\RM062X\6-311++G(d,p)\C7H9Cl2F1O1\ZJXU\28-Mar-2024\1
 \\# m062x 6-311++G(d,p) opt=z-matrix\\test\\0,1\C\C,1,d1\C,2,d2,1,120.
 \C,3,d3,2,120.,1,0.,0\C,4,d4,3,120.,2,0.,0\C,5,d5,4,120.,3,0.,0\F,1,d6
 ,2,120.,3,180.,0\H,2,d7,3,120.,4,180.,0\H,3,d8,4,120.,5,180.,0\H,4,d9,
 5,120.,6,180.,0\H,5,d10,6,120.,1,180.,0\H,6,d11,1,120.,2,180.,0\O,7,d1
 2,1,179.9,3,180.,0\C,13,d13,1,179.9,2,180.,0\H,14,d14,1,120.,2,90.,0\H
 ,14,d15,1,120.,2,-90.,0\H,7,d16,1,100.,2,90.,0\Cl,17,d17,7,160.,1,0.,0
 \H,7,d18,1,100.,2,-90.,0\Cl,19,d19,7,160.,1,0.,0\\d1=1.37738112\d2=1.3
 8227058\d3=1.38651739\d4=1.39467047\d5=1.39814852\d6=1.35875843\d7=1.0
 8392025\d8=1.08265699\d9=1.08303101\d10=1.08256227\d11=1.08315458\d12=
 2.69228776\d13=1.20004834\d14=1.10317102\d15=1.10317102\d16=2.04824582
 \d17=1.28566748\d18=2.04824582\d19=1.28566748\\Version=ES64L-G16RevB.0
 1\State=1-A'\HF=-1367.5323434\RMSD=5.201e-09\RMSF=3.870e-03\Dipole=-0.
 2924735,0.,-0.1692906\Quadrupole=12.3560219,-16.6972602,4.3412383,0.,7
 .1142814,0.\PG=CS [SG(C7H5F1O1),X(H4Cl2)]\\@


 DEPRESSION IS WAITING FOR YOUR SHIP TO COME IN,
 AND FINDING OUT IT'S THE TITANIC.
 Job cpu time:       0 days  1 hours 43 minutes 51.2 seconds.
 Elapsed time:       0 days  0 hours 51 minutes 58.0 seconds.
 File lengths (MBytes):  RWF=     67 Int=      0 D2E=      0 Chk=      8 Scr=      1
 Normal termination of Gaussian 16 at Thu Mar 28 11:03:21 2024.
