 Entering Gaussian System, Link 0=g16
 Input=model_H2b.gjf
 Output=model_H2b.log
 Initial command:
 /home/zjxu/prog/g16/l1.exe "/home/zjxu/zjhan/5_model/HBr/water/Gau-53842.inp" -scrdir="/home/zjxu/zjhan/5_model/HBr/water/"
 Entering Link 1 = /home/zjxu/prog/g16/l1.exe PID=     53843.
  
 Copyright (c) 1988-2017, Gaussian, Inc.  All Rights Reserved.
  
 This is part of the Gaussian(R) 16 program.  It is based on
 the Gaussian(R) 09 system (copyright 2009, Gaussian, Inc.),
 the Gaussian(R) 03 system (copyright 2003, Gaussian, Inc.),
 the Gaussian(R) 98 system (copyright 1998, Gaussian, Inc.),
 the Gaussian(R) 94 system (copyright 1995, Gaussian, Inc.),
 the Gaussian 92(TM) system (copyright 1992, Gaussian, Inc.),
 the Gaussian 90(TM) system (copyright 1990, Gaussian, Inc.),
 the Gaussian 88(TM) system (copyright 1988, Gaussian, Inc.),
 the Gaussian 86(TM) system (copyright 1986, Carnegie Mellon
 University), and the Gaussian 82(TM) system (copyright 1983,
 Carnegie Mellon University). Gaussian is a federally registered
 trademark of Gaussian, Inc.
  
 This software contains proprietary and confidential information,
 including trade secrets, belonging to Gaussian, Inc.
  
 This software is provided under written license and may be
 used, copied, transmitted, or stored only in accord with that
 written license.
  
 The following legend is applicable only to US Government
 contracts under FAR:
  
                    RESTRICTED RIGHTS LEGEND
  
 Use, reproduction and disclosure by the US Government is
 subject to restrictions as set forth in subparagraphs (a)
 and (c) of the Commercial Computer Software - Restricted
 Rights clause in FAR 52.227-19.
  
 Gaussian, Inc.
 340 Quinnipiac St., Bldg. 40, Wallingford CT 06492
  
  
 ---------------------------------------------------------------
 Warning -- This program may not be used in any manner that
 competes with the business of Gaussian, Inc. or will provide
 assistance to any competitor of Gaussian, Inc.  The licensee
 of this program is prohibited from giving any competitor of
 Gaussian, Inc. access to this program.  By using this program,
 the user acknowledges that Gaussian, Inc. is engaged in the
 business of creating and licensing software in the field of
 computational chemistry and represents and warrants to the
 licensee that it is not a competitor of Gaussian, Inc. and that
 it will not use this program in any manner prohibited above.
 ---------------------------------------------------------------
  

 Cite this work as:
 Gaussian 16, Revision B.01,
 M. J. Frisch, G. W. Trucks, H. B. Schlegel, G. E. Scuseria, 
 M. A. Robb, J. R. Cheeseman, G. Scalmani, V. Barone, 
 G. A. Petersson, H. Nakatsuji, X. Li, M. Caricato, A. V. Marenich, 
 J. Bloino, B. G. Janesko, R. Gomperts, B. Mennucci, H. P. Hratchian, 
 J. V. Ortiz, A. F. Izmaylov, J. L. Sonnenberg, D. Williams-Young, 
 F. Ding, F. Lipparini, F. Egidi, J. Goings, B. Peng, A. Petrone, 
 T. Henderson, D. Ranasinghe, V. G. Zakrzewski, J. Gao, N. Rega, 
 G. Zheng, W. Liang, M. Hada, M. Ehara, K. Toyota, R. Fukuda, 
 J. Hasegawa, M. Ishida, T. Nakajima, Y. Honda, O. Kitao, H. Nakai, 
 T. Vreven, K. Throssell, J. A. Montgomery, Jr., J. E. Peralta, 
 F. Ogliaro, M. J. Bearpark, J. J. Heyd, E. N. Brothers, K. N. Kudin, 
 V. N. Staroverov, T. A. Keith, R. Kobayashi, J. Normand, 
 K. Raghavachari, A. P. Rendell, J. C. Burant, S. S. Iyengar, 
 J. Tomasi, M. Cossi, J. M. Millam, M. Klene, C. Adamo, R. Cammi, 
 J. W. Ochterski, R. L. Martin, K. Morokuma, O. Farkas, 
 J. B. Foresman, and D. J. Fox, Gaussian, Inc., Wallingford CT, 2016.
 
 ******************************************
 Gaussian 16:  ES64L-G16RevB.01 20-Dec-2017
                 2-Apr-2024 
 ******************************************
 %mem=4GB
 %nproc=4
 Will use up to    4 processors via shared memory.
 %chk=model_H2b
 ------------------------------------------------------------------
 # m062x 6-311++G(d,p) opt=(recalc=5,z-matrix) scrf=(solvent=water)
 ------------------------------------------------------------------
 1/10=7,18=40,26=3,38=1,71=5/1,3;
 2/12=2,17=6,18=5,29=3,40=1/2;
 3/5=4,6=6,7=1111,11=2,25=1,30=1,70=2201,71=2,72=1,74=-55,140=1/1,2,3;
 4//1;
 5/5=2,38=5,53=1/2;
 8/6=4,10=90,11=11/1;
 11/6=1,8=1,9=11,15=111,16=1/1,2,10;
 10/6=1/2;
 6/7=2,8=2,9=2,10=2,28=1/1;
 7/10=1,25=1/1,2,3,16;
 1/10=7,18=40,26=3,71=5/3(3);
 2/29=3/2;
 7/9=1,25=1,44=-1/16;
 99//99;
 2/29=3/2;
 3/5=4,6=6,7=1111,11=2,25=1,30=1,70=2205,71=2,72=1,74=-55,140=1/1,2,3;
 4/5=5,16=3,69=1/1;
 5/5=2,38=5,53=1/2;
 8/6=4,10=90,11=11/1;
 11/6=1,8=1,9=11,15=111,16=1/1,2,10;
 10/6=1/2;
 7/10=1,25=1/1,2,3,16;
 1/18=40,26=3,71=5/3(-8);
 2/29=3/2;
 6/7=2,8=2,9=2,10=2,19=2,28=1/1;
 7/9=1,25=1,44=-1/16;
 99/9=1/99;
 ----
 test
 ----
 Symbolic Z-matrix:
 Charge =  0 Multiplicity = 1
 C1
 C2                   1    d1
 C3                   2    d2       1     120. 
 C4                   3    d3       2     120.     1     0.       0
 C5                   4    d4       3     120.     2     0.       0
 C6                   5    d5       4     120.     3     0.       0
 F7                   1    d6       2     120.     3     180.     0
 H8                   2    d7       3     120.     4     180.     0
 H9                   3    d8       4     120.     5     180.     0
 H10                  4    d9       5     120.     6     180.     0
 H11                  5    d10      6     120.     1     180.     0
 H12                  6    d11      1     120.     2     180.     0
 O13                  7    d12      1     179.9    3     180.     0
 C14                  13   d13      1     179.9    2     180.     0
 H15                  14   d14      1     120.     2     90.      0
 H16                  14   d15      1     120.     2    -90.      0
 H17                  7    d16      1     100.     2     90.      0
 Br18                 17   d17      7     160.     1     0.       0
 H19                  7    d18      1     100.     2    -90.      0
 Br20                 19   d19      7     160.     1     0.       0
       Variables:
  d1                    1.3                      
  d2                    1.3                      
  d3                    1.3                      
  d4                    1.3                      
  d5                    1.3                      
  d6                    1.4                      
  d7                    1.                       
  d8                    1.                       
  d9                    1.                       
  d10                   1.                       
  d11                   1.                       
  d12                   2.8                      
  d13                   1.2                      
  d14                   1.                       
  d15                   1.                       
  d16                   2.3                      
  d17                   0.9                      
  d18                   2.3                      
  d19                   0.9                      
 

 GradGradGradGradGradGradGradGradGradGradGradGradGradGradGradGradGradGrad
 Berny optimization.
 Initialization pass.
                       ----------------------------
                       !    Initial Parameters    !
                       ! (Angstroms and Degrees)  !
 ----------------------                            ----------------------
 !      Name          Value   Derivative information (Atomic Units)     !
 ------------------------------------------------------------------------
 !       d1          1.3      calculate D2E/DX2 analytically            !
 !       d2          1.3      calculate D2E/DX2 analytically            !
 !       d3          1.3      calculate D2E/DX2 analytically            !
 !       d4          1.3      calculate D2E/DX2 analytically            !
 !       d5          1.3      calculate D2E/DX2 analytically            !
 !       d6          1.4      calculate D2E/DX2 analytically            !
 !       d7          1.0      calculate D2E/DX2 analytically            !
 !       d8          1.0      calculate D2E/DX2 analytically            !
 !       d9          1.0      calculate D2E/DX2 analytically            !
 !       d10         1.0      calculate D2E/DX2 analytically            !
 !       d11         1.0      calculate D2E/DX2 analytically            !
 !       d12         2.8      calculate D2E/DX2 analytically            !
 !       d13         1.2      calculate D2E/DX2 analytically            !
 !       d14         1.0      calculate D2E/DX2 analytically            !
 !       d15         1.0      calculate D2E/DX2 analytically            !
 !       d16         2.3      calculate D2E/DX2 analytically            !
 !       d17         0.9      calculate D2E/DX2 analytically            !
 !       d18         2.3      calculate D2E/DX2 analytically            !
 !       d19         0.9      calculate D2E/DX2 analytically            !
 ------------------------------------------------------------------------
 Trust Radius=3.00D-01 FncErr=1.00D-07 GrdErr=1.00D-06 EigMax=2.50D+02 EigMin=1.00D-04
 Number of steps in this run=     29 maximum allowed number of steps=    100.
 GradGradGradGradGradGradGradGradGradGradGradGradGradGradGradGradGradGrad

 ---------------------------------------------------------------------------------------------------
                            Z-MATRIX (ANGSTROMS AND DEGREES)
   CD    Cent   Atom    N1       Length/X        N2       Alpha/Y        N3        Beta/Z          J
 ---------------------------------------------------------------------------------------------------
      1      1  C 
      2      2  C        1   1.300000(     1)
      3      3  C        2   1.300000(     2)      1  120.000(    20)
      4      4  C        3   1.300000(     3)      2  120.000(    21)      1    0.000(    38)      0
      5      5  C        4   1.300000(     4)      3  120.000(    22)      2    0.000(    39)      0
      6      6  C        5   1.300000(     5)      4  120.000(    23)      3    0.000(    40)      0
      7      7  F        1   1.400000(     6)      2  120.000(    24)      3  180.000(    41)      0
      8      8  H        2   1.000000(     7)      3  120.000(    25)      4  180.000(    42)      0
      9      9  H        3   1.000000(     8)      4  120.000(    26)      5  180.000(    43)      0
     10     10  H        4   1.000000(     9)      5  120.000(    27)      6  180.000(    44)      0
     11     11  H        5   1.000000(    10)      6  120.000(    28)      1  180.000(    45)      0
     12     12  H        6   1.000000(    11)      1  120.000(    29)      2  180.000(    46)      0
     13     13  O        7   2.800000(    12)      1  179.900(    30)      3  180.000(    47)      0
     14     14  C       13   1.200000(    13)      1  179.900(    31)      2  180.000(    48)      0
     15     15  H       14   1.000000(    14)      1  120.000(    32)      2   90.000(    49)      0
     16     16  H       14   1.000000(    15)      1  120.000(    33)      2  -90.000(    50)      0
     17     17  H        7   2.300000(    16)      1  100.000(    34)      2   90.000(    51)      0
     18     18  Br      17   0.900000(    17)      7  160.000(    35)      1    0.000(    52)      0
     19     19  H        7   2.300000(    18)      1  100.000(    36)      2  -90.000(    53)      0
     20     20  Br      19   0.900000(    19)      7  160.000(    37)      1    0.000(    54)      0
 ---------------------------------------------------------------------------------------------------
                         Z-Matrix orientation:                         
 ---------------------------------------------------------------------
 Center     Atomic      Atomic             Coordinates (Angstroms)
 Number     Number       Type             X           Y           Z
 ---------------------------------------------------------------------
      1          6           0        0.000000    0.000000    0.000000
      2          6           0        0.000000    0.000000    1.300000
      3          6           0        1.125833    0.000000    1.950000
      4          6           0        2.251666    0.000000    1.300000
      5          6           0        2.251666    0.000000   -0.000000
      6          6           0        1.125833    0.000000   -0.650000
      7          9           0       -1.212436   -0.000000   -0.700000
      8          1           0       -0.866025   -0.000000    1.800000
      9          1           0        1.125833   -0.000000    2.950000
     10          1           0        3.117691   -0.000000    1.800000
     11          1           0        3.117691   -0.000000   -0.500000
     12          1           0        1.125833   -0.000000   -1.650000
     13          8           0       -3.634860   -0.000000   -2.104230
     14          6           0       -4.672340   -0.000000   -2.707251
     15          1           0       -5.104965    0.866025   -2.957922
     16          1           0       -5.104965   -0.866025   -2.957922
     17          1           0       -1.558318    2.265058   -0.899695
     18         35           0       -1.422973    3.151385   -0.821554
     19          1           0       -1.558318   -2.265058   -0.899695
     20         35           0       -1.422973   -3.151385   -0.821554
 ---------------------------------------------------------------------
                    Distance matrix (angstroms):
                    1          2          3          4          5
     1  C    0.000000
     2  C    1.300000   0.000000
     3  C    2.251666   1.300000   0.000000
     4  C    2.600000   2.251666   1.300000   0.000000
     5  C    2.251666   2.600000   2.251666   1.300000   0.000000
     6  C    1.300000   2.251666   2.600000   2.251666   1.300000
     7  F    1.400000   2.338803   3.534119   4.000000   3.534119
     8  H    1.997498   1.000000   1.997498   3.157531   3.600000
     9  H    3.157531   1.997498   1.000000   1.997498   3.157531
    10  H    3.600000   3.157531   1.997498   1.000000   1.997498
    11  H    3.157531   3.600000   3.157531   1.997498   1.000000
    12  H    1.997498   3.157531   3.600000   3.157531   1.997498
    13  O    4.199999   4.980059   6.253077   6.799997   6.251317
    14  C    5.399997   6.155390   7.436988   7.999995   7.434452
    15  H    5.963218   6.703772   7.978755   8.543999   7.976172
    16  H    5.963218   6.703772   7.978755   8.543999   7.976172
    17  H    2.892800   3.521009   4.522822   4.948245   4.522822
    18  Br   3.554016   4.056731   4.910107   5.285375   4.910107
    19  H    2.892800   3.521009   4.522822   4.948245   4.522822
    20  Br   3.554016   4.056731   4.910107   5.285375   4.910107
                    6          7          8          9         10
     6  C    0.000000
     7  F    2.338803   0.000000
     8  H    3.157531   2.523886   0.000000
     9  H    3.600000   4.334743   2.300000   0.000000
    10  H    3.157531   5.000000   3.983717   2.300000   0.000000
    11  H    1.997498   4.334743   4.600000   3.983717   2.300000
    12  H    1.000000   2.523886   3.983717   4.600000   3.983717
    13  O    4.977849   2.800000   4.786382   6.943301   7.799997
    14  C    6.152324   3.999999   5.899436   8.100821   8.999995
    15  H    6.700697   4.582575   6.430896   8.629970   9.539387
    16  H    6.700697   4.582575   6.430896   8.629970   9.539387
    17  H    3.521009   2.300000   3.591394   5.211076   5.855246
    18  Br   4.056731   3.160748   4.136902   5.536448   6.117303
    19  H    3.521009   2.300000   3.591394   5.211076   5.855246
    20  Br   4.056731   3.160748   4.136902   5.536448   6.117303
                   11         12         13         14         15
    11  H    0.000000
    12  H    2.300000   0.000000
    13  O    6.940497   4.782313   0.000000
    14  C    8.096700   5.893776   1.200000   0.000000
    15  H    8.625744   6.425224   1.907878   1.000000   0.000000
    16  H    8.625744   6.425224   1.907878   1.000000   1.732051
    17  H    5.211076   3.591394   3.300517   4.253807   4.332700
    18  Br   5.536448   4.136902   4.058193   4.903618   4.831563
    19  H    5.211076   3.591394   3.300517   4.253807   5.159329
    20  Br   5.536448   4.136902   4.058193   4.903618   5.853266
                   16         17         18         19         20
    16  H    0.000000
    17  H    5.159329   0.000000
    18  Br   5.853266   0.900000   0.000000
    19  H    4.332700   4.530116   5.418697   0.000000
    20  Br   4.831563   5.418697   6.302770   0.900000   0.000000
 Stoichiometry    C7H9Br2FO
 Framework group  CS[SG(C7H5FO),X(H4Br2)]
 Deg. of freedom    34
 Full point group                 CS      NOp   2
 Largest Abelian subgroup         CS      NOp   2
 Largest concise Abelian subgroup CS      NOp   2
                         Standard orientation:                         
 ---------------------------------------------------------------------
 Center     Atomic      Atomic             Coordinates (Angstroms)
 Number     Number       Type             X           Y           Z
 ---------------------------------------------------------------------
      1          6           0       -0.000780   -1.111712    0.000000
      2          6           0       -1.126613   -1.761712    0.000000
      3          6           0       -1.126613   -3.061712    0.000000
      4          6           0       -0.000780   -3.711712    0.000000
      5          6           0        1.125053   -3.061712    0.000000
      6          6           0        1.125053   -1.761712    0.000000
      7          9           0       -0.000780    0.288288   -0.000000
      8          1           0       -1.992639   -1.261712    0.000000
      9          1           0       -1.992639   -3.561712    0.000000
     10          1           0       -0.000780   -4.711712    0.000000
     11          1           0        1.991078   -3.561712    0.000000
     12          1           0        1.991078   -1.261712    0.000000
     13          8           0        0.004107    3.088284   -0.000000
     14          6           0        0.007597    4.288279   -0.000000
     15          1           0        0.008373    4.788279    0.866025
     16          1           0        0.008373    4.788279   -0.866025
     17          1           0       -0.000780    0.687679    2.265058
     18         35           0       -0.000780    0.531396    3.151385
     19          1           0       -0.000780    0.687679   -2.265058
     20         35           0       -0.000780    0.531396   -3.151385
 ---------------------------------------------------------------------
 Rotational constants (GHZ):           0.4707583           0.3051438           0.1961820
 Standard basis: 6-311++G(d,p) (5D, 7F)
 There are   248 symmetry adapted cartesian basis functions of A'  symmetry.
 There are   124 symmetry adapted cartesian basis functions of A"  symmetry.
 There are   236 symmetry adapted basis functions of A'  symmetry.
 There are   121 symmetry adapted basis functions of A"  symmetry.
   357 basis functions,   593 primitive gaussians,   372 cartesian basis functions
    69 alpha electrons       69 beta electrons
       nuclear repulsion energy      1146.3588038004 Hartrees.
 NAtoms=   20 NActive=   20 NUniq=   17 SFac= 1.38D+00 NAtFMM=   60 NAOKFM=F Big=F
 Integral buffers will be    131072 words long.
 Raffenetti 2 integral format.
 Two-electron integral symmetry is turned on.
 Force inversion solution in PCM.
 ------------------------------------------------------------------------------
 Polarizable Continuum Model (PCM)
 =================================
 Model                : PCM.
 Atomic radii         : UFF (Universal Force Field).
 Polarization charges : Total charges.
 Charge compensation  : None.
 Solution method      : Matrix inversion.
 Cavity type          : Scaled VdW (van der Waals Surface) (Alpha=1.100).
 Cavity algorithm     : GePol (No added spheres)
                        Default sphere list used, NSphG=   20.
                        Lebedev-Laikov grids with approx.  5.0 points / Ang**2.
                        Smoothing algorithm: York/Karplus (Gamma=1.0000).
                        Polarization charges: spherical gaussians, with
                                              point-specific exponents (IZeta= 3).
                        Self-potential: point-specific (ISelfS= 7).
                        Self-field    : sphere-specific E.n sum rule (ISelfD= 2).
 1st derivatives      : Analytical E(r).r(x)/FMM algorithm (CHGder, D1EAlg=3).
                        Cavity 1st derivative terms included.
 2nd derivatives      : Analytical E(r).r(xy)/FMM algorithm (CHGder, D2EAlg=3).
                        Cavity 2nd derivative terms included.
 Solvent              : Water, Eps=  78.355300 Eps(inf)=   1.777849
 ------------------------------------------------------------------------------
 Spheres list:
 ISph  on   Nord     Re0    Alpha      Xe            Ye            Ze
    1   C      1    1.9255  1.100     -0.000780     -1.111712      0.000000
    2   C      2    1.9255  1.100     -1.126613     -1.761712      0.000000
    3   C      3    1.9255  1.100     -1.126613     -3.061712      0.000000
    4   C      4    1.9255  1.100     -0.000780     -3.711712      0.000000
    5   C      5    1.9255  1.100      1.125053     -3.061712      0.000000
    6   C      6    1.9255  1.100      1.125053     -1.761712      0.000000
    7   F      7    1.6820  1.100     -0.000780      0.288288     -0.000000
    8   H      8    1.4430  1.100     -1.992639     -1.261712      0.000000
    9   H      9    1.4430  1.100     -1.992639     -3.561712      0.000000
   10   H     10    1.4430  1.100     -0.000780     -4.711712      0.000000
   11   H     11    1.4430  1.100      1.991078     -3.561712      0.000000
   12   H     12    1.4430  1.100      1.991078     -1.261712      0.000000
   13   O     13    1.7500  1.100      0.004107      3.088284     -0.000000
   14   C     14    1.9255  1.100      0.007597      4.288279     -0.000000
   15   H     15    1.4430  1.100      0.008373      4.788279      0.866025
   16   H     16    1.4430  1.100      0.008373      4.788279     -0.866025
   17   H     17    1.4430  1.100     -0.000780      0.687679      2.265058
   18  Br     18    2.0945  1.100     -0.000780      0.531396      3.151385
   19   H     19    1.4430  1.100     -0.000780      0.687679     -2.265058
   20  Br     20    2.0945  1.100     -0.000780      0.531396     -3.151385
 ------------------------------------------------------------------------------
 One-electron integrals computed using PRISM.
 NBasis=   357 RedAO= T EigKep=  3.61D-06  NBF=   236   121
 NBsUse=   356 1.00D-06 EigRej=  4.00D-07 NBFU=   235   121
 ExpMin= 3.50D-02 ExpMax= 4.40D+05 ExpMxC= 1.51D+04 IAcc=3 IRadAn=         5 AccDes= 0.00D+00
 Harris functional with IExCor= 1009 and IRadAn=       5 diagonalized for initial guess.
 HarFok:  IExCor= 1009 AccDes= 0.00D+00 IRadAn=         5 IDoV= 1 UseB2=F ITyADJ=14
 ICtDFT=  3500011 ScaDFX=  1.000000  1.000000  1.000000  1.000000
 FoFCou: FMM=F IPFlag=           0 FMFlag=      100000 FMFlg1=           0
         NFxFlg=           0 DoJE=T BraDBF=F KetDBF=T FulRan=T
         wScrn=  0.000000 ICntrl=       500 IOpCl=  0 I1Cent=   200000004 NGrid=           0
         NMat0=    1 NMatS0=      1 NMatT0=    0 NMatD0=    1 NMtDS0=    0 NMtDT0=    0
 Petite list used in FoFCou.
 Initial guess orbital symmetries:
       Occupied  (A") (A') (A") (A') (A") (A') (A') (A") (A') (A")
                 (A') (A') (A') (A') (A') (A') (A') (A') (A') (A")
                 (A') (A") (A') (A') (A") (A') (A") (A") (A') (A')
                 (A") (A') (A") (A') (A') (A") (A") (A') (A') (A')
                 (A") (A') (A') (A') (A') (A') (A') (A') (A') (A")
                 (A') (A') (A') (A") (A') (A') (A") (A') (A') (A')
                 (A") (A') (A") (A') (A") (A") (A') (A") (A")
       Virtual   (A') (A") (A") (A') (A') (A") (A') (A') (A') (A')
                 (A") (A') (A") (A') (A") (A') (A") (A") (A') (A')
                 (A') (A') (A') (A") (A') (A") (A') (A") (A') (A')
                 (A') (A') (A") (A') (A') (A") (A') (A") (A') (A')
                 (A") (A') (A') (A") (A') (A') (A") (A') (A') (A')
                 (A") (A') (A') (A') (A') (A') (A') (A") (A') (A')
                 (A') (A') (A") (A') (A') (A') (A') (A") (A') (A")
                 (A') (A') (A") (A') (A') (A') (A') (A") (A") (A')
                 (A') (A") (A') (A') (A") (A') (A') (A') (A') (A")
                 (A") (A') (A') (A') (A") (A') (A") (A') (A") (A")
                 (A") (A') (A') (A') (A") (A') (A') (A') (A") (A')
                 (A') (A') (A') (A') (A') (A") (A') (A') (A') (A")
                 (A') (A") (A') (A') (A") (A') (A") (A") (A') (A')
                 (A") (A') (A') (A") (A") (A") (A') (A') (A') (A')
                 (A') (A") (A') (A') (A') (A") (A") (A') (A') (A")
                 (A') (A") (A') (A") (A') (A') (A") (A') (A') (A")
                 (A') (A") (A') (A") (A') (A') (A') (A') (A') (A")
                 (A') (A") (A") (A") (A") (A') (A') (A') (A") (A')
                 (A") (A') (A') (A') (A") (A') (A") (A') (A') (A")
                 (A') (A") (A') (A') (A") (A') (A') (A') (A") (A')
                 (A") (A') (A') (A") (A') (A') (A") (A') (A') (A')
                 (A") (A') (A") (A") (A') (A") (A') (A') (A') (A")
                 (A') (A') (A') (A') (A') (A') (A') (A") (A') (A')
                 (A') (A") (A') (A") (A") (A') (A') (A') (A") (A')
                 (A') (A") (A") (A') (A') (A') (A") (A') (A') (A')
                 (A") (A') (A') (A') (A') (A") (A') (A") (A') (A')
                 (A') (A") (A") (A') (A") (A') (A') (A") (A') (A')
                 (A') (A') (A') (A') (A') (A') (A") (A') (A') (A")
                 (A') (A") (A') (A') (A") (A') (A")
 The electronic state of the initial guess is 1-A'.
 Requested convergence on RMS density matrix=1.00D-08 within 128 cycles.
 Requested convergence on MAX density matrix=1.00D-06.
 Requested convergence on             energy=1.00D-06.
 No special actions if energy rises.
 Inv3:  Mode=1 IEnd=    14785200.
 Iteration    1 A*A^-1 deviation from unit magnitude is 5.11D-15 for   2214.
 Iteration    1 A*A^-1 deviation from orthogonality  is 1.53D-15 for   1051    549.
 Iteration    1 A^-1*A deviation from unit magnitude is 5.77D-15 for   2214.
 Iteration    1 A^-1*A deviation from orthogonality  is 1.66D-15 for    835    232.
 Error on total polarization charges =  0.01672
 SCF Done:  E(RM062X) =  -5594.65440738     A.U. after   15 cycles
            NFock= 15  Conv=0.33D-08     -V/T= 2.0002
 DoSCS=F DFT=T ScalE2(SS,OS)=  1.000000  1.000000
 Range of M.O.s used for correlation:     1   356
 NBasis=   357 NAE=    69 NBE=    69 NFC=     0 NFV=     0
 NROrb=    356 NOA=    69 NOB=    69 NVA=   287 NVB=   287

 **** Warning!!: The largest alpha MO coefficient is  0.14059725D+03

 Symmetrizing basis deriv contribution to polar:
 IMax=3 JMax=2 DiffMx= 0.00D+00
 G2DrvN: will do    21 centers at a time, making    1 passes.
 Calling FoFCou, ICntrl=  3107 FMM=F I1Cent=   0 AccDes= 0.00D+00.
 NEqPCM:  Using equilibrium solvation (IEInf=0, Eps=  78.3553, EpsInf=   1.7778)
 G2PCM: DoFxE=T DoFxN=T DoGrad=T DoDP/DQ/DG/TGxP=FFFF NFrqRd=   0 IEInf=0 SqF1=F DoCFld=F IF1Alg=4.
 End of G2Drv F.D. properties file   721 does not exist.
 End of G2Drv F.D. properties file   722 does not exist.
 End of G2Drv F.D. properties file   788 does not exist.
          IDoAtm=11111111111111111111
 NEqPCM:  Using equilibrium solvation (IEInf=0, Eps=  78.3553, EpsInf=   1.7778)
          Differentiating once with respect to electric field.
                with respect to dipole field.
          Differentiating once with respect to nuclear coordinates.
 CalDSu exits because no D1Ps are significant.
          There are    54 degrees of freedom in the 1st order CPHF.  IDoFFX=4 NUNeed=    54.
     54 vectors produced by pass  0 Test12= 3.67D-14 1.85D-09 XBig12= 6.75D+01 3.74D+00.
 AX will form    54 AO Fock derivatives at one time.
     54 vectors produced by pass  1 Test12= 3.67D-14 1.85D-09 XBig12= 8.40D+00 5.09D-01.
     54 vectors produced by pass  2 Test12= 3.67D-14 1.85D-09 XBig12= 1.14D-01 6.81D-02.
     54 vectors produced by pass  3 Test12= 3.67D-14 1.85D-09 XBig12= 9.50D-04 5.74D-03.
     54 vectors produced by pass  4 Test12= 3.67D-14 1.85D-09 XBig12= 4.91D-06 3.04D-04.
     54 vectors produced by pass  5 Test12= 3.67D-14 1.85D-09 XBig12= 2.79D-08 2.82D-05.
     43 vectors produced by pass  6 Test12= 3.67D-14 1.85D-09 XBig12= 1.01D-10 2.06D-06.
     11 vectors produced by pass  7 Test12= 3.67D-14 1.85D-09 XBig12= 4.09D-13 1.10D-07.
      3 vectors produced by pass  8 Test12= 3.67D-14 1.85D-09 XBig12= 1.34D-15 5.01D-09.
 InvSVY:  IOpt=1 It=  1 EMax= 5.33D-15
 Solved reduced A of dimension   381 with    54 vectors.
 Isotropic polarizability for W=    0.000000      127.93 Bohr**3.
 End of Minotr F.D. properties file   721 does not exist.
 End of Minotr F.D. properties file   722 does not exist.
 End of Minotr F.D. properties file   788 does not exist.

 **********************************************************************

            Population analysis using the SCF Density.

 **********************************************************************

 Orbital symmetries:
       Occupied  (A") (A') (A") (A') (A") (A') (A') (A") (A') (A")
                 (A') (A') (A') (A') (A') (A') (A') (A') (A') (A")
                 (A') (A") (A') (A') (A") (A') (A") (A") (A') (A')
                 (A") (A') (A") (A') (A") (A') (A") (A') (A') (A')
                 (A") (A') (A') (A') (A') (A') (A') (A') (A") (A')
                 (A') (A") (A') (A") (A') (A') (A') (A') (A") (A')
                 (A') (A') (A") (A') (A") (A') (A") (A") (A")
       Virtual   (A') (A') (A') (A') (A") (A") (A') (A") (A') (A')
                 (A") (A') (A") (A") (A') (A') (A') (A") (A') (A')
                 (A") (A") (A') (A') (A") (A') (A') (A') (A') (A')
                 (A') (A") (A") (A') (A') (A") (A') (A") (A') (A')
                 (A') (A") (A') (A') (A') (A") (A') (A') (A') (A")
                 (A') (A') (A") (A') (A") (A') (A') (A') (A') (A')
                 (A') (A') (A") (A') (A') (A') (A") (A') (A') (A")
                 (A') (A') (A') (A') (A") (A') (A') (A") (A') (A')
                 (A') (A") (A') (A") (A') (A') (A") (A') (A") (A')
                 (A") (A') (A") (A') (A") (A') (A') (A") (A") (A')
                 (A") (A') (A') (A') (A") (A') (A') (A') (A") (A')
                 (A') (A') (A') (A') (A') (A') (A") (A') (A') (A')
                 (A') (A") (A') (A') (A") (A") (A') (A') (A") (A")
                 (A') (A') (A") (A") (A") (A") (A') (A') (A') (A')
                 (A') (A") (A') (A') (A") (A') (A') (A") (A') (A')
                 (A") (A") (A") (A') (A') (A") (A') (A") (A') (A')
                 (A') (A") (A') (A") (A') (A') (A') (A') (A") (A')
                 (A") (A') (A") (A") (A') (A") (A') (A") (A') (A')
                 (A") (A') (A') (A') (A") (A') (A') (A") (A') (A")
                 (A') (A") (A') (A') (A") (A') (A') (A') (A') (A")
                 (A') (A') (A') (A') (A") (A') (A') (A') (A") (A")
                 (A') (A") (A') (A") (A") (A") (A') (A') (A') (A")
                 (A') (A') (A') (A') (A') (A") (A') (A') (A') (A')
                 (A') (A") (A') (A") (A") (A') (A') (A') (A') (A")
                 (A') (A') (A') (A") (A") (A') (A') (A") (A') (A')
                 (A") (A') (A') (A') (A') (A") (A') (A") (A') (A')
                 (A') (A") (A") (A') (A") (A') (A') (A") (A') (A')
                 (A') (A') (A') (A') (A') (A') (A") (A') (A') (A")
                 (A') (A") (A') (A') (A") (A') (A")
 The electronic state is 1-A'.
 Alpha  occ. eigenvalues -- -485.32967-485.32967 -63.33314 -63.33314 -57.15863
 Alpha  occ. eigenvalues --  -57.15863 -57.15681 -57.15681 -57.15681 -57.15681
 Alpha  occ. eigenvalues --  -25.25459 -19.63885 -10.61557 -10.61405 -10.52493
 Alpha  occ. eigenvalues --  -10.52490 -10.52205 -10.52193 -10.51477  -9.03249
 Alpha  occ. eigenvalues --   -9.03249  -6.86854  -6.86854  -6.84671  -6.84671
 Alpha  occ. eigenvalues --   -6.84670  -6.84670  -2.90559  -2.90559  -2.88755
 Alpha  occ. eigenvalues --   -2.88755  -2.88753  -2.88753  -2.87518  -2.87518
 Alpha  occ. eigenvalues --   -2.87518  -2.87518  -1.36061  -1.19102  -1.03233
 Alpha  occ. eigenvalues --   -0.99665  -0.99619  -0.89393  -0.88517  -0.74905
 Alpha  occ. eigenvalues --   -0.73853  -0.72424  -0.66489  -0.60447  -0.59187
 Alpha  occ. eigenvalues --   -0.58863  -0.58155  -0.54917  -0.53983  -0.53956
 Alpha  occ. eigenvalues --   -0.53518  -0.52579  -0.50173  -0.47863  -0.47513
 Alpha  occ. eigenvalues --   -0.44502  -0.42108  -0.37986  -0.37961  -0.37946
 Alpha  occ. eigenvalues --   -0.37891  -0.35000  -0.33932  -0.32866
 Alpha virt. eigenvalues --   -0.00448  -0.00177   0.00950   0.01505   0.01819
 Alpha virt. eigenvalues --    0.02449   0.02455   0.03034   0.03625   0.03868
 Alpha virt. eigenvalues --    0.04004   0.04640   0.05579   0.05772   0.06024
 Alpha virt. eigenvalues --    0.06953   0.07264   0.07470   0.08387   0.08541
 Alpha virt. eigenvalues --    0.10534   0.10573   0.10914   0.11928   0.12723
 Alpha virt. eigenvalues --    0.12793   0.13017   0.13543   0.13733   0.14245
 Alpha virt. eigenvalues --    0.14399   0.14799   0.15903   0.15910   0.16038
 Alpha virt. eigenvalues --    0.16411   0.17660   0.17900   0.18179   0.18504
 Alpha virt. eigenvalues --    0.18836   0.19219   0.20196   0.20855   0.22018
 Alpha virt. eigenvalues --    0.22399   0.22776   0.23181   0.23981   0.26290
 Alpha virt. eigenvalues --    0.26493   0.27063   0.28448   0.30088   0.31312
 Alpha virt. eigenvalues --    0.31936   0.32229   0.33307   0.35189   0.36461
 Alpha virt. eigenvalues --    0.36709   0.38297   0.38775   0.40486   0.40967
 Alpha virt. eigenvalues --    0.41582   0.41724   0.42754   0.43660   0.43679
 Alpha virt. eigenvalues --    0.45286   0.45466   0.46227   0.46409   0.46514
 Alpha virt. eigenvalues --    0.46965   0.52736   0.53892   0.54790   0.55588
 Alpha virt. eigenvalues --    0.57171   0.58410   0.58556   0.59086   0.59541
 Alpha virt. eigenvalues --    0.60384   0.61753   0.62854   0.63007   0.63600
 Alpha virt. eigenvalues --    0.64812   0.65280   0.66026   0.66048   0.67099
 Alpha virt. eigenvalues --    0.67785   0.68339   0.68610   0.69969   0.70256
 Alpha virt. eigenvalues --    0.71374   0.72342   0.73097   0.75815   0.76189
 Alpha virt. eigenvalues --    0.77665   0.81552   0.81687   0.84130   0.85420
 Alpha virt. eigenvalues --    0.85779   0.89075   0.89994   0.89998   0.94273
 Alpha virt. eigenvalues --    0.95539   0.97533   1.00741   1.01385   1.02225
 Alpha virt. eigenvalues --    1.02354   1.03248   1.05971   1.06871   1.07886
 Alpha virt. eigenvalues --    1.08380   1.11490   1.12017   1.15115   1.16094
 Alpha virt. eigenvalues --    1.17060   1.18045   1.21070   1.23958   1.27799
 Alpha virt. eigenvalues --    1.28409   1.31640   1.35154   1.35350   1.41632
 Alpha virt. eigenvalues --    1.52269   1.52703   1.53852   1.55411   1.57925
 Alpha virt. eigenvalues --    1.58722   1.61647   1.64657   1.64685   1.65126
 Alpha virt. eigenvalues --    1.67386   1.67587   1.68422   1.69490   1.70295
 Alpha virt. eigenvalues --    1.73685   1.74751   1.75511   1.76508   1.76754
 Alpha virt. eigenvalues --    1.82298   1.82403   1.84842   1.85702   1.85791
 Alpha virt. eigenvalues --    1.90691   1.94417   1.94642   1.97432   1.99485
 Alpha virt. eigenvalues --    2.00899   2.02545   2.03070   2.04289   2.04634
 Alpha virt. eigenvalues --    2.05214   2.05400   2.05665   2.06569   2.07538
 Alpha virt. eigenvalues --    2.12497   2.17195   2.17383   2.17937   2.19179
 Alpha virt. eigenvalues --    2.20330   2.21510   2.21884   2.31375   2.37156
 Alpha virt. eigenvalues --    2.40781   2.46553   2.49421   2.50780   2.50925
 Alpha virt. eigenvalues --    2.58237   2.64658   2.67368   2.70861   2.73131
 Alpha virt. eigenvalues --    2.75573   2.77260   2.78586   2.80083   2.80462
 Alpha virt. eigenvalues --    2.81451   2.86640   2.86724   2.88139   2.89754
 Alpha virt. eigenvalues --    2.91100   2.96402   2.98202   2.98496   2.98781
 Alpha virt. eigenvalues --    2.99055   3.03943   3.08743   3.11975   3.24565
 Alpha virt. eigenvalues --    3.27315   3.35755   3.39749   3.41890   3.55589
 Alpha virt. eigenvalues --    3.60247   3.61629   3.65130   3.75184   3.76907
 Alpha virt. eigenvalues --    3.87601   3.88377   3.99705   4.00892   4.04593
 Alpha virt. eigenvalues --    4.09112   4.14130   4.17637   4.19316   4.24622
 Alpha virt. eigenvalues --    4.25830   4.25997   4.26907   4.27568   4.27645
 Alpha virt. eigenvalues --    4.28405   4.30473   4.32381   4.33955   4.38939
 Alpha virt. eigenvalues --    4.90393   4.90860   4.95633   4.96137   5.11615
 Alpha virt. eigenvalues --    5.24945   5.83380   6.57823   6.61971   6.91500
 Alpha virt. eigenvalues --    6.99618   7.02022   7.61836   7.63772   7.65356
 Alpha virt. eigenvalues --    7.66867   7.81937   7.86697  23.73625  24.17515
 Alpha virt. eigenvalues --   24.27200  24.31686  24.54313  24.57385  24.72984
 Alpha virt. eigenvalues --   48.51711  48.53310  50.07366  66.98270 290.77400
 Alpha virt. eigenvalues --  290.79431 290.81206 290.82589 291.01363 291.05777
 Alpha virt. eigenvalues -- 1021.141991021.16225
          Condensed to atoms (all electrons):
               1          2          3          4          5          6
     1  C   13.446222  -1.309696  -2.214695  -0.375316  -2.215001  -1.308332
     2  C   -1.309696  14.112228   2.184794  -0.882130  -1.026871  -7.396804
     3  C   -2.214695   2.184794   6.679948   0.520444  -0.290547  -1.030443
     4  C   -0.375316  -0.882130   0.520444   7.204504   0.521660  -0.872464
     5  C   -2.215001  -1.026871  -0.290547   0.521660   6.680210   2.180878
     6  C   -1.308332  -7.396804  -1.030443  -0.872464   2.180878  14.111671
     7  F    0.758858  -0.298399  -0.080158   0.022410  -0.080348  -0.298154
     8  H   -0.110802   0.551411  -0.059065  -0.034809   0.018566  -0.033379
     9  H   -0.000606  -0.035885   0.422802  -0.121271   0.005798   0.056964
    10  H    0.048838  -0.027192  -0.080011   0.535124  -0.080155  -0.026857
    11  H   -0.000201   0.057326   0.005739  -0.121417   0.422803  -0.036426
    12  H   -0.110020  -0.032468   0.018643  -0.035046  -0.059614   0.550351
    13  O    0.076307  -0.024980  -0.003228  -0.000421  -0.003218  -0.025120
    14  C    0.009564  -0.003324  -0.000764   0.000686  -0.000763  -0.003297
    15  H   -0.001107   0.000250   0.000074  -0.000093   0.000072   0.000232
    16  H   -0.001107   0.000250   0.000074  -0.000093   0.000072   0.000232
    17  H   -0.120930   0.029921   0.022488  -0.024383   0.021869   0.025078
    18  Br   0.268547  -0.069018  -0.054887   0.042008  -0.054316  -0.064735
    19  H   -0.120930   0.029921   0.022488  -0.024383   0.021869   0.025078
    20  Br   0.268547  -0.069018  -0.054887   0.042008  -0.054316  -0.064735
               7          8          9         10         11         12
     1  C    0.758858  -0.110802  -0.000606   0.048838  -0.000201  -0.110020
     2  C   -0.298399   0.551411  -0.035885  -0.027192   0.057326  -0.032468
     3  C   -0.080158  -0.059065   0.422802  -0.080011   0.005739   0.018643
     4  C    0.022410  -0.034809  -0.121271   0.535124  -0.121417  -0.035046
     5  C   -0.080348   0.018566   0.005798  -0.080155   0.422803  -0.059614
     6  C   -0.298154  -0.033379   0.056964  -0.026857  -0.036426   0.550351
     7  F    9.196257  -0.012604  -0.002272   0.001842  -0.002260  -0.012631
     8  H   -0.012604   0.477208  -0.007870  -0.000252   0.002558   0.000817
     9  H   -0.002272  -0.007870   0.469065  -0.015479   0.002097   0.002564
    10  H    0.001842  -0.000252  -0.015479   0.481156  -0.015485  -0.000252
    11  H   -0.002260   0.002558   0.002097  -0.015485   0.469069  -0.007889
    12  H   -0.012631   0.000817   0.002564  -0.000252  -0.007889   0.477357
    13  O    0.000510   0.001463  -0.000009   0.000020  -0.000009   0.001470
    14  C    0.002947  -0.000197  -0.000062   0.000024  -0.000062  -0.000195
    15  H   -0.000020  -0.000031   0.000008  -0.000003   0.000008  -0.000031
    16  H   -0.000020  -0.000031   0.000008  -0.000003   0.000008  -0.000031
    17  H   -0.044909   0.007895   0.003522  -0.002444   0.003534   0.007843
    18  Br   0.014930  -0.005678  -0.004711   0.003056  -0.004720  -0.005636
    19  H   -0.044909   0.007895   0.003522  -0.002444   0.003534   0.007843
    20  Br   0.014930  -0.005678  -0.004711   0.003056  -0.004720  -0.005636
              13         14         15         16         17         18
     1  C    0.076307   0.009564  -0.001107  -0.001107  -0.120930   0.268547
     2  C   -0.024980  -0.003324   0.000250   0.000250   0.029921  -0.069018
     3  C   -0.003228  -0.000764   0.000074   0.000074   0.022488  -0.054887
     4  C   -0.000421   0.000686  -0.000093  -0.000093  -0.024383   0.042008
     5  C   -0.003218  -0.000763   0.000072   0.000072   0.021869  -0.054316
     6  C   -0.025120  -0.003297   0.000232   0.000232   0.025078  -0.064735
     7  F    0.000510   0.002947  -0.000020  -0.000020  -0.044909   0.014930
     8  H    0.001463  -0.000197  -0.000031  -0.000031   0.007895  -0.005678
     9  H   -0.000009  -0.000062   0.000008   0.000008   0.003522  -0.004711
    10  H    0.000020   0.000024  -0.000003  -0.000003  -0.002444   0.003056
    11  H   -0.000009  -0.000062   0.000008   0.000008   0.003534  -0.004720
    12  H    0.001470  -0.000195  -0.000031  -0.000031   0.007843  -0.005636
    13  O    8.220722   0.252065  -0.088085  -0.088085   0.019201  -0.017319
    14  C    0.252065   4.816994   0.417082   0.417082  -0.011509   0.006170
    15  H   -0.088085   0.417082   0.661581  -0.117712   0.002255  -0.000308
    16  H   -0.088085   0.417082  -0.117712   0.661581   0.001181  -0.000811
    17  H    0.019201  -0.011509   0.002255   0.001181   1.171336   0.006483
    18  Br  -0.017319   0.006170  -0.000308  -0.000811   0.006483  34.793134
    19  H    0.019201  -0.011509   0.001181   0.002255   0.026479  -0.017175
    20  Br  -0.017319   0.006170  -0.000811  -0.000308  -0.017175   0.011056
              19         20
     1  C   -0.120930   0.268547
     2  C    0.029921  -0.069018
     3  C    0.022488  -0.054887
     4  C   -0.024383   0.042008
     5  C    0.021869  -0.054316
     6  C    0.025078  -0.064735
     7  F   -0.044909   0.014930
     8  H    0.007895  -0.005678
     9  H    0.003522  -0.004711
    10  H   -0.002444   0.003056
    11  H    0.003534  -0.004720
    12  H    0.007843  -0.005636
    13  O    0.019201  -0.017319
    14  C   -0.011509   0.006170
    15  H    0.001181  -0.000811
    16  H    0.002255  -0.000308
    17  H    0.026479  -0.017175
    18  Br  -0.017175   0.011056
    19  H    1.171336   0.006483
    20  Br   0.006483  34.793134
 Mulliken charges:
               1
     1  C   -0.988142
     2  C    0.209683
     3  C   -0.008810
     4  C   -0.397018
     5  C   -0.008649
     6  C    0.210261
     7  F   -0.136000
     8  H    0.202581
     9  H    0.226527
    10  H    0.177462
    11  H    0.226514
    12  H    0.202558
    13  O   -0.323167
    14  C    0.102900
    15  H    0.125458
    16  H    0.125458
    17  H   -0.127735
    18  Br   0.153926
    19  H   -0.127735
    20  Br   0.153926
 Sum of Mulliken charges =  -0.00000
 Mulliken charges with hydrogens summed into heavy atoms:
               1
     1  C   -0.988142
     2  C    0.412265
     3  C    0.217717
     4  C   -0.219556
     5  C    0.217865
     6  C    0.412819
     7  F   -0.136000
    13  O   -0.323167
    14  C    0.353816
    18  Br   0.026191
    20  Br   0.026191
 APT charges:
               1
     1  C    0.784086
     2  C   -0.188435
     3  C    0.004844
     4  C   -0.085640
     5  C    0.004864
     6  C   -0.188489
     7  F   -0.739462
     8  H    0.096084
     9  H    0.066586
    10  H    0.063270
    11  H    0.066586
    12  H    0.096083
    13  O   -0.730272
    14  C    0.707028
    15  H    0.004301
    16  H    0.004301
    17  H    0.179285
    18  Br  -0.162153
    19  H    0.179285
    20  Br  -0.162153
 Sum of APT charges =  -0.00000
 APT charges with hydrogens summed into heavy atoms:
               1
     1  C    0.784086
     2  C   -0.092351
     3  C    0.071430
     4  C   -0.022369
     5  C    0.071449
     6  C   -0.092405
     7  F   -0.739462
    13  O   -0.730272
    14  C    0.715631
    18  Br   0.017132
    20  Br   0.017132
 Electronic spatial extent (au):  <R**2>=           4813.2269
 Charge=             -0.0000 electrons
 Dipole moment (field-independent basis, Debye):
    X=              0.0085    Y=              0.7745    Z=              0.0000  Tot=              0.7746
 Quadrupole moment (field-independent basis, Debye-Ang):
   XX=            -83.7671   YY=            -57.3155   ZZ=            -99.4966
   XY=              0.0499   XZ=             -0.0000   YZ=              0.0000
 Traceless Quadrupole moment (field-independent basis, Debye-Ang):
   XX=             -3.5740   YY=             22.8776   ZZ=            -19.3035
   XY=              0.0499   XZ=             -0.0000   YZ=              0.0000
 Octapole moment (field-independent basis, Debye-Ang**2):
  XXX=             -0.0367  YYY=            139.8793  ZZZ=             -0.0000  XYY=              0.2270
  XXY=              5.2375  XXZ=              0.0000  XZZ=              0.0037  YZZ=             21.8961
  YYZ=              0.0000  XYZ=             -0.0000
 Hexadecapole moment (field-independent basis, Debye-Ang**3):
 XXXX=           -283.5818 YYYY=          -1755.6900 ZZZZ=          -2334.0771 XXXY=             -0.9319
 XXXZ=              0.0000 YYYX=              0.2222 YYYZ=              0.0000 ZZZX=              0.0000
 ZZZY=              0.0000 XXYY=           -445.3159 XXZZ=           -457.8460 YYZZ=           -848.4091
 XXYZ=             -0.0000 YYXZ=             -0.0000 ZZXY=             -0.3026
 N-N= 1.146358803800D+03 E-N=-1.565098096677D+04  KE= 5.593581146347D+03
 Symmetry A'   KE= 3.000357320971D+03
 Symmetry A"   KE= 2.593223825375D+03
  Exact polarizability: 132.495   0.038 153.531  -0.000  -0.000  97.772
 Approx polarizability: 127.735   0.038 146.366   0.000   0.000  95.263
 D2PCM: PCM CHGder 2nd derivatives, FixD1E=F FixD2E=F DoIter=F DoCFld=F I1PDM=0
 Calling FoFJK, ICntrl=    100127 FMM=F ISym2X=1 I1Cent= 0 IOpClX= 0 NMat=1 NMatS=1 NMatT=0.
 ***** Axes restored to original set *****
 -------------------------------------------------------------------
 Center     Atomic                   Forces (Hartrees/Bohr)
 Number     Number              X              Y              Z
 -------------------------------------------------------------------
      1        6          -0.086935728   -0.000000000   -0.050189984
      2        6          -0.053972955   -0.000000000    0.015005447
      3        6           0.002626220    0.000000000    0.037596486
      4        6           0.039336650    0.000000000    0.022710907
      5        6           0.033872410    0.000000000   -0.016523625
      6        6          -0.013992498   -0.000000000   -0.054245395
      7        9           0.022807256   -0.000000000    0.013169617
      8        1          -0.065678674    0.000000000    0.036048784
      9        1          -0.001709522    0.000000000    0.073785095
     10        1           0.064275214    0.000000000    0.037109324
     11        1           0.063045001   -0.000000000   -0.038373031
     12        1          -0.001620159   -0.000000000   -0.074903777
     13        8           0.016934382    0.000000000    0.009780377
     14        6           0.060050611   -0.000000000    0.034997352
     15        1          -0.039113185    0.071366270   -0.022746597
     16        1          -0.039113185   -0.071366270   -0.022746597
     17        1          -0.178886763   -1.169014688   -0.103281676
     18       35           0.178480844    1.169071244    0.103044485
     19        1          -0.178886763    1.169014688   -0.103281676
     20       35           0.178480844   -1.169071244    0.103044485
 -------------------------------------------------------------------
 Cartesian Forces:  Max     1.169071244 RMS     0.308382943
 -----------------------------------------------------------------------------------------------
                       Internal Coordinate Forces (Hartree/Bohr or radian)
  Cent   Atom   N1       Length/X         N2         Alpha/Y        N3         Beta/Z          J
 -----------------------------------------------------------------------------------------------
      1  C 
      2  C        1   0.037131(     1)
      3  C        2   0.153435(     2)      1   0.161052(    20)
      4  C        3   0.222255(     3)      2   0.415110(    21)      1  -0.000000(    38)     0
      5  C        4   0.185125(     4)      3   0.452096(    22)      2  -0.000000(    39)     0
      6  C        5   0.079175(     5)      4   0.253890(    23)      3  -0.000000(    40)     0
      7  F        1  -0.023963(     6)      2  -0.000008(    24)      3   0.000000(    41)     0
      8  H        2   0.074904(     7)      3   0.003062(    25)      4   0.000000(    42)     0
      9  H        3   0.073785(     8)      4   0.003231(    26)      5   0.000000(    43)     0
     10  H        4   0.074219(     9)      5   0.000000(    27)      6   0.000000(    44)     0
     11  H        5   0.073785(    10)      6  -0.003231(    28)      1  -0.000000(    45)     0
     12  H        6   0.074904(    11)      1  -0.003062(    29)      2  -0.000000(    46)     0
     13  O        7   0.001433(    12)      1   0.000017(    30)      3  -0.000000(    47)     0
     14  C       13   0.020989(    13)      1   0.000104(    31)      2  -0.000000(    48)     0
     15  H       14   0.084428(    14)      1   0.006617(    32)      2   0.000118(    49)     0
     16  H       14   0.084428(    15)      1   0.006617(    33)      2  -0.000118(    50)     0
     17  H        7   0.000137(    16)      1   0.002049(    34)      2   0.000013(    51)     0
     18  Br      17   1.187098(    17)      7   0.000080(    35)      1   0.000001(    52)     0
     19  H        7   0.000137(    18)      1   0.002049(    36)      2  -0.000013(    53)     0
     20  Br      19   1.187098(    19)      7   0.000080(    37)      1  -0.000001(    54)     0
 -----------------------------------------------------------------------------------------------
 Internal  Forces:  Max     1.187097784 RMS     0.252520341

 GradGradGradGradGradGradGradGradGradGradGradGradGradGradGradGradGradGrad
 Berny optimization.
 Search for a local minimum.
 Step number   1 out of a maximum of   29
 All quantities printed in internal units (Hartrees-Bohrs-Radians)
 Second derivative matrix not updated -- analytic derivatives used.
 The second derivative matrix:
                          d1        d2        d3        d4        d5
           d1           0.89142
           d2          -0.02958   1.00867
           d3          -0.36429   0.41449   1.58330
           d4          -0.15352   0.02405   0.40212   0.99892
           d5           0.05471  -0.18128  -0.37914  -0.01383   0.95840
           d6           0.04594   0.04747   0.02896  -0.01699  -0.04442
           d7           0.00104   0.00211  -0.00043   0.00253   0.00229
           d8          -0.00060   0.00401   0.00476  -0.00018  -0.00037
           d9          -0.00089  -0.00091   0.00418   0.00507   0.00087
           d10          0.00314   0.00218  -0.00078   0.00162   0.00147
           d11         -0.01052  -0.00719   0.00358   0.01009   0.01160
           d12          0.00063   0.00075   0.00044  -0.00019  -0.00051
           d13         -0.00002  -0.00002  -0.00001   0.00001   0.00001
           d14          0.00004   0.00005   0.00003  -0.00001  -0.00003
           d15          0.00004   0.00005   0.00003  -0.00001  -0.00003
           d16         -0.00051  -0.00067  -0.00029   0.00022   0.00035
           d17         -0.00000  -0.00003   0.00005   0.00005  -0.00003
           d18         -0.00051  -0.00067  -0.00029   0.00022   0.00035
           d19         -0.00000  -0.00003   0.00005   0.00005  -0.00003
                          d6        d7        d8        d9        d10
           d6           0.30985
           d7          -0.00005   0.57515
           d8           0.00095   0.00037   0.57440
           d9           0.00039   0.00017   0.00042   0.57398
           d10          0.00095   0.00011   0.00021   0.00042   0.57440
           d11         -0.00005   0.00008   0.00011   0.00017   0.00037
           d12         -0.00129  -0.00001   0.00004   0.00002   0.00004
           d13          0.00006  -0.00000  -0.00000  -0.00000  -0.00000
           d14         -0.00011  -0.00000   0.00000   0.00000   0.00000
           d15         -0.00011  -0.00000   0.00000   0.00000   0.00000
           d16          0.00241   0.00008  -0.00004  -0.00002  -0.00004
           d17          0.00017   0.00005  -0.00000  -0.00000  -0.00000
           d18          0.00241   0.00008  -0.00004  -0.00002  -0.00004
           d19          0.00017   0.00005  -0.00000  -0.00000  -0.00000
                          d11       d12       d13       d14       d15
           d11          0.57515
           d12         -0.00001   0.00516
           d13         -0.00000   0.00020   0.95640
           d14         -0.00000   0.00018   0.03178   0.57477
           d15         -0.00000   0.00018   0.03178   0.00152   0.57477
           d16          0.00008  -0.00036  -0.00003  -0.00000  -0.00001
           d17          0.00005   0.00003  -0.00007   0.00003   0.00001
           d18          0.00008  -0.00036  -0.00003  -0.00001  -0.00000
           d19          0.00005   0.00003  -0.00007   0.00001   0.00003
                          d16       d17       d18       d19
           d16          0.00833
           d17          0.00392   3.25669
           d18          0.00001  -0.00003   0.00833
           d19         -0.00003  -0.00001   0.00392   3.25669
 ITU=  0
     Eigenvalues ---    0.00507   0.00831   0.00837   0.30010   0.57106
     Eigenvalues ---    0.57325   0.57348   0.57384   0.57419   0.57473
     Eigenvalues ---    0.57536   0.58376   0.76948   0.81419   0.96164
     Eigenvalues ---    1.08953   2.19502   3.25668   3.25670
 RFO step:  Lambda=-7.82790751D-01 EMin= 5.07428328D-03
 Linear search not attempted -- first point.
 Maximum step size (   0.300) exceeded in Quadratic search.
    -- Step size scaled by   0.635
 Variable       Old X    -DE/DX   Delta X   Delta X   Delta X     New X
                                 (Linear)    (Quad)   (Total)
    d1        2.45664   0.03713   0.00000   0.03089   0.03089   2.48753
    d2        2.45664   0.15344   0.00000   0.04657   0.04657   2.50321
    d3        2.45664   0.22226   0.00000   0.05388   0.05388   2.51053
    d4        2.45664   0.18513   0.00000   0.05564   0.05564   2.51229
    d5        2.45664   0.07917   0.00000   0.04420   0.04420   2.50085
    d6        2.64562  -0.02396   0.00000  -0.01613  -0.01613   2.62949
    d7        1.88973   0.07490   0.00000   0.03473   0.03473   1.92445
    d8        1.88973   0.07379   0.00000   0.03420   0.03420   1.92393
    d9        1.88973   0.07422   0.00000   0.03435   0.03435   1.92408
   d10        1.88973   0.07379   0.00000   0.03427   0.03427   1.92399
   d11        1.88973   0.07490   0.00000   0.03454   0.03454   1.92426
   d12        5.29123   0.00143   0.00000   0.00104   0.00104   5.29227
   d13        2.26767   0.02099   0.00000   0.00624   0.00624   2.27391
   d14        1.88973   0.08443   0.00000   0.03928   0.03928   1.92901
   d15        1.88973   0.08443   0.00000   0.03928   0.03928   1.92901
   d16        4.34637   0.00014   0.00000  -0.00072  -0.00072   4.34565
   d17        1.70075   1.18710   0.00000   0.18657   0.18657   1.88732
   d18        4.34637   0.00014   0.00000  -0.00072  -0.00072   4.34565
   d19        1.70075   1.18710   0.00000   0.18657   0.18657   1.88732
         Item               Value     Threshold  Converged?
 Maximum Force            1.187098     0.000450     NO 
 RMS     Force            0.395777     0.000300     NO 
 Maximum Displacement     0.186566     0.001800     NO 
 RMS     Displacement     0.068825     0.001200     NO 
 Predicted change in Energy=-3.744341D-01
 GradGradGradGradGradGradGradGradGradGradGradGradGradGradGradGradGradGrad

 ---------------------------------------------------------------------------------------------------
                            Z-MATRIX (ANGSTROMS AND DEGREES)
   CD    Cent   Atom    N1       Length/X        N2       Alpha/Y        N3        Beta/Z          J
 ---------------------------------------------------------------------------------------------------
      1      1  C 
      2      2  C        1   1.316344(     1)
      3      3  C        2   1.324644(     2)      1  120.000(    20)
      4      4  C        3   1.328513(     3)      2  120.000(    21)      1    0.000(    38)      0
      5      5  C        4   1.329446(     4)      3  120.000(    22)      2    0.000(    39)      0
      6      6  C        5   1.323390(     5)      4  120.000(    23)      3    0.000(    40)      0
      7      7  F        1   1.391467(     6)      2  120.000(    24)      3  180.000(    41)      0
      8      8  H        2   1.018377(     7)      3  120.000(    25)      4  180.000(    42)      0
      9      9  H        3   1.018100(     8)      4  120.000(    26)      5  180.000(    43)      0
     10     10  H        4   1.018178(     9)      5  120.000(    27)      6  180.000(    44)      0
     11     11  H        5   1.018134(    10)      6  120.000(    28)      1  180.000(    45)      0
     12     12  H        6   1.018277(    11)      1  120.000(    29)      2  180.000(    46)      0
     13     13  O        7   2.800548(    12)      1  179.900(    30)      3  180.000(    47)      0
     14     14  C       13   1.203303(    13)      1  179.900(    31)      2  180.000(    48)      0
     15     15  H       14   1.020787(    14)      1  120.000(    32)      2   90.000(    49)      0
     16     16  H       14   1.020787(    15)      1  120.000(    33)      2  -90.000(    50)      0
     17     17  H        7   2.299621(    16)      1  100.000(    34)      2   90.000(    51)      0
     18     18  Br      17   0.998726(    17)      7  160.000(    35)      1    0.000(    52)      0
     19     19  H        7   2.299621(    18)      1  100.000(    36)      2  -90.000(    53)      0
     20     20  Br      19   0.998726(    19)      7  160.000(    37)      1    0.000(    54)      0
 ---------------------------------------------------------------------------------------------------
                         Z-Matrix orientation:                         
 ---------------------------------------------------------------------
 Center     Atomic      Atomic             Coordinates (Angstroms)
 Number     Number       Type             X           Y           Z
 ---------------------------------------------------------------------
      1          6           0        0.000000    0.000000    0.000000
      2          6           0        0.000000    0.000000    1.316344
      3          6           0        1.147175    0.000000    1.978666
      4          6           0        2.297701    0.000000    1.314410
      5          6           0        2.297701    0.000000   -0.015036
      6          6           0        1.151611    0.000000   -0.676731
      7          9           0       -1.205046   -0.000000   -0.695733
      8          1           0       -0.881941   -0.000000    1.825533
      9          1           0        1.147175   -0.000000    2.996766
     10          1           0        3.179469   -0.000000    1.823499
     11          1           0        3.179431   -0.000000   -0.524103
     12          1           0        1.143789   -0.000000   -1.694978
     13          8           0       -3.627944   -0.000000   -2.100238
     14          6           0       -4.668279   -0.000000   -2.704921
     15          1           0       -5.109895    0.884028   -2.960805
     16          1           0       -5.109895   -0.884028   -2.960805
     17          1           0       -1.550871    2.264685   -0.895396
     18         35           0       -1.400679    3.248238   -0.808682
     19          1           0       -1.550871   -2.264685   -0.895396
     20         35           0       -1.400679   -3.248238   -0.808682
 ---------------------------------------------------------------------
                    Distance matrix (angstroms):
                    1          2          3          4          5
     1  C    0.000000
     2  C    1.316344   0.000000
     3  C    2.287166   1.324644   0.000000
     4  C    2.647093   2.297702   1.328513   0.000000
     5  C    2.297750   2.655561   2.301860   1.329446   0.000000
     6  C    1.335729   2.301860   2.655401   2.297425   1.323390
     7  F    1.391467   2.345334   3.561651   4.038553   3.568274
     8  H    2.027410   1.018377   2.034886   3.220461   3.673937
     9  H    3.208834   2.034657   1.018100   2.038144   3.224075
    10  H    3.665266   3.219663   2.038209   1.018178   2.039050
    11  H    3.222338   3.673694   3.223960   2.039014   1.018134
    12  H    2.044799   3.221229   3.673646   3.223031   2.038067
    13  O    4.192013   4.983474   6.280065   6.839085   6.281826
    14  C    5.395315   6.161445   7.466960   8.042381   7.467286
    15  H    5.971507   6.722094   8.020649   8.598340   8.020694
    16  H    5.971507   6.722094   8.020649   8.598340   8.020694
    17  H    2.887167   3.525024   4.546260   4.982323   4.551410
    18  Br   3.628625   4.126583   4.981157   5.360651   4.985874
    19  H    2.887167   3.525024   4.546260   4.982323   4.551410
    20  Br   3.628625   4.126583   4.981157   5.360651   4.985874
                    6          7          8          9         10
     6  C    0.000000
     7  F    2.356733   0.000000
     8  H    3.224385   2.541885   0.000000
     9  H    3.673500   4.378070   2.342882   0.000000
    10  H    3.219217   5.056728   4.061410   2.346652   0.000000
    11  H    2.033556   4.387834   4.692071   4.065290   2.347602
    12  H    1.018277   2.552550   4.061721   4.691746   4.064932
    13  O    4.987035   2.800548   4.790847   6.984355   7.857263
    14  C    6.163171   4.003851   5.904352   8.144246   9.060559
    15  H    6.723463   4.599990   6.447181   8.684762   9.611692
    16  H    6.723463   4.599990   6.447181   8.684762   9.611692
    17  H    3.532707   2.299621   3.602738   5.249493   5.907394
    18  Br   4.133116   3.256084   4.214170   5.614628   6.201386
    19  H    3.532707   2.299621   3.602738   5.249493   5.907394
    20  Br   4.133116   3.256084   4.214170   5.614628   6.201386
                   11         12         13         14         15
    11  H    0.000000
    12  H    2.348358   0.000000
    13  O    6.987457   4.788911   0.000000
    14  C    8.145091   5.899162   1.203303   0.000000
    15  H    8.685157   6.441459   1.928279   1.020787   0.000000
    16  H    8.685157   6.441459   1.928279   1.020787   1.768055
    17  H    5.257605   3.609615   3.300708   4.256925   4.340366
    18  Br   5.622228   4.220295   4.144861   4.982367   4.896877
    19  H    5.257605   3.609615   3.300708   4.256925   5.181405
    20  Br   5.622228   4.220295   4.144861   4.982367   5.955295
                   16         17         18         19         20
    16  H    0.000000
    17  H    5.181405   0.000000
    18  Br   5.955295   0.998726   0.000000
    19  H    4.340366   4.529369   5.515650   0.000000
    20  Br   4.896877   5.515650   6.496476   0.998726   0.000000
 Stoichiometry    C7H9Br2FO
 Framework group  CS[SG(C7H5FO),X(H4Br2)]
 Deg. of freedom    34
 Full point group                 CS      NOp   2
 Largest Abelian subgroup         CS      NOp   2
 Largest concise Abelian subgroup CS      NOp   2
                         Standard orientation:                         
 ---------------------------------------------------------------------
 Center     Atomic      Atomic             Coordinates (Angstroms)
 Number     Number       Type             X           Y           Z
 ---------------------------------------------------------------------
      1          6           0       -0.003507   -1.090746   -0.000000
      2          6           0       -1.143495   -1.748918   -0.000000
      3          6           0       -1.143495   -3.073561   -0.000000
      4          6           0        0.007031   -3.737818   -0.000000
      5          6           0        1.158365   -3.073095   -0.000000
      6          6           0        1.158365   -1.749704    0.000000
      7          9           0       -0.003507    0.300721    0.000000
      8          1           0       -2.025435   -1.239729   -0.000000
      9          1           0       -2.025195   -3.582611   -0.000000
     10          1           0        0.007031   -4.755996   -0.000000
     11          1           0        2.040095   -3.582162    0.000000
     12          1           0        2.036282   -1.233807    0.000000
     13          8           0        0.001381    3.101265    0.000000
     14          6           0        0.004884    4.304563    0.000000
     15          1           0        0.005678    4.814956    0.884028
     16          1           0        0.005678    4.814956   -0.884028
     17          1           0       -0.003507    0.700046    2.264685
     18         35           0       -0.003507    0.526619    3.248238
     19          1           0       -0.003507    0.700046   -2.264685
     20         35           0       -0.003507    0.526619   -3.248238
 ---------------------------------------------------------------------
 Rotational constants (GHZ):           0.4667144           0.2875582           0.1885833
 Standard basis: 6-311++G(d,p) (5D, 7F)
 There are   248 symmetry adapted cartesian basis functions of A'  symmetry.
 There are   124 symmetry adapted cartesian basis functions of A"  symmetry.
 There are   236 symmetry adapted basis functions of A'  symmetry.
 There are   121 symmetry adapted basis functions of A"  symmetry.
   357 basis functions,   593 primitive gaussians,   372 cartesian basis functions
    69 alpha electrons       69 beta electrons
       nuclear repulsion energy      1122.9768086321 Hartrees.
 NAtoms=   20 NActive=   20 NUniq=   17 SFac= 1.38D+00 NAtFMM=   60 NAOKFM=F Big=F
 Integral buffers will be    131072 words long.
 Raffenetti 2 integral format.
 Two-electron integral symmetry is turned on.
 Force inversion solution in PCM.
 ------------------------------------------------------------------------------
 Polarizable Continuum Model (PCM)
 =================================
 Model                : PCM.
 Atomic radii         : UFF (Universal Force Field).
 Polarization charges : Total charges.
 Charge compensation  : None.
 Solution method      : Matrix inversion.
 Cavity type          : Scaled VdW (van der Waals Surface) (Alpha=1.100).
 Cavity algorithm     : GePol (No added spheres)
                        Default sphere list used, NSphG=   20.
                        Lebedev-Laikov grids with approx.  5.0 points / Ang**2.
                        Smoothing algorithm: York/Karplus (Gamma=1.0000).
                        Polarization charges: spherical gaussians, with
                                              point-specific exponents (IZeta= 3).
                        Self-potential: point-specific (ISelfS= 7).
                        Self-field    : sphere-specific E.n sum rule (ISelfD= 2).
 1st derivatives      : Analytical E(r).r(x)/FMM algorithm (CHGder, D1EAlg=3).
                        Cavity 1st derivative terms included.
 Solvent              : Water, Eps=  78.355300 Eps(inf)=   1.777849
 ------------------------------------------------------------------------------
 Spheres list:
 ISph  on   Nord     Re0    Alpha      Xe            Ye            Ze
    1   C      1    1.9255  1.100     -0.003507     -1.090746     -0.000000
    2   C      2    1.9255  1.100     -1.143495     -1.748918     -0.000000
    3   C      3    1.9255  1.100     -1.143495     -3.073561     -0.000000
    4   C      4    1.9255  1.100      0.007031     -3.737818     -0.000000
    5   C      5    1.9255  1.100      1.158365     -3.073095     -0.000000
    6   C      6    1.9255  1.100      1.158365     -1.749704      0.000000
    7   F      7    1.6820  1.100     -0.003507      0.300721      0.000000
    8   H      8    1.4430  1.100     -2.025435     -1.239729     -0.000000
    9   H      9    1.4430  1.100     -2.025195     -3.582611     -0.000000
   10   H     10    1.4430  1.100      0.007031     -4.755996     -0.000000
   11   H     11    1.4430  1.100      2.040095     -3.582162      0.000000
   12   H     12    1.4430  1.100      2.036282     -1.233807      0.000000
   13   O     13    1.7500  1.100      0.001381      3.101265      0.000000
   14   C     14    1.9255  1.100      0.004884      4.304563      0.000000
   15   H     15    1.4430  1.100      0.005678      4.814956      0.884028
   16   H     16    1.4430  1.100      0.005678      4.814956     -0.884028
   17   H     17    1.4430  1.100     -0.003507      0.700046      2.264685
   18  Br     18    2.0945  1.100     -0.003507      0.526619      3.248238
   19   H     19    1.4430  1.100     -0.003507      0.700046     -2.264685
   20  Br     20    2.0945  1.100     -0.003507      0.526619     -3.248238
 ------------------------------------------------------------------------------
 One-electron integrals computed using PRISM.
 NBasis=   357 RedAO= T EigKep=  4.38D-06  NBF=   236   121
 NBsUse=   356 1.00D-06 EigRej=  4.91D-07 NBFU=   235   121
 Initial guess from the checkpoint file:  "model_H2b.chk"
 B after Tr=     0.000000    0.000000   -0.000000
         Rot=    1.000000   -0.000000    0.000000   -0.000868 Ang=  -0.10 deg.
 Initial guess orbital symmetries:
       Occupied  (A") (A') (A") (A') (A") (A') (A') (A") (A') (A")
                 (A') (A') (A') (A') (A') (A') (A') (A') (A') (A")
                 (A') (A") (A') (A') (A") (A') (A") (A") (A') (A')
                 (A") (A') (A") (A') (A") (A') (A") (A') (A') (A')
                 (A") (A') (A') (A') (A') (A') (A') (A') (A") (A')
                 (A') (A") (A') (A") (A') (A') (A') (A') (A") (A')
                 (A') (A') (A") (A') (A") (A') (A") (A") (A")
       Virtual   (A') (A') (A') (A') (A") (A") (A') (A") (A') (A')
                 (A") (A') (A") (A") (A') (A') (A') (A") (A') (A')
                 (A") (A") (A') (A') (A") (A') (A') (A') (A') (A')
                 (A') (A") (A") (A') (A') (A") (A') (A") (A') (A')
                 (A') (A") (A') (A') (A') (A") (A') (A') (A') (A")
                 (A') (A') (A") (A') (A") (A') (A') (A') (A') (A')
                 (A') (A') (A") (A') (A') (A') (A") (A') (A') (A")
                 (A') (A') (A') (A') (A") (A') (A') (A") (A') (A')
                 (A') (A") (A') (A") (A') (A') (A") (A') (A") (A')
                 (A") (A') (A") (A') (A") (A') (A') (A") (A") (A')
                 (A") (A') (A') (A') (A") (A') (A') (A') (A") (A')
                 (A') (A') (A') (A') (A') (A') (A") (A') (A') (A')
                 (A') (A") (A') (A') (A") (A") (A') (A') (A") (A")
                 (A') (A') (A") (A") (A") (A") (A') (A') (A') (A')
                 (A') (A") (A') (A') (A") (A') (A') (A") (A') (A')
                 (A") (A") (A") (A') (A') (A") (A') (A") (A') (A')
                 (A') (A") (A') (A") (A') (A') (A') (A') (A") (A')
                 (A") (A') (A") (A") (A') (A") (A') (A") (A') (A')
                 (A") (A') (A') (A') (A") (A') (A') (A") (A') (A")
                 (A') (A") (A') (A') (A") (A') (A') (A') (A') (A")
                 (A') (A') (A') (A') (A") (A') (A') (A') (A") (A")
                 (A') (A") (A') (A") (A") (A") (A') (A') (A') (A")
                 (A') (A') (A') (A') (A') (A") (A') (A') (A') (A')
                 (A') (A") (A') (A") (A") (A') (A') (A') (A') (A")
                 (A') (A') (A') (A") (A") (A') (A') (A") (A') (A')
                 (A") (A') (A') (A') (A') (A") (A') (A") (A') (A')
                 (A') (A") (A") (A') (A") (A') (A') (A") (A') (A')
                 (A') (A') (A') (A') (A') (A') (A") (A') (A') (A")
                 (A') (A") (A') (A') (A") (A') (A")
 ExpMin= 3.50D-02 ExpMax= 4.40D+05 ExpMxC= 1.51D+04 IAcc=3 IRadAn=         5 AccDes= 0.00D+00
 Harris functional with IExCor= 1009 and IRadAn=       5 diagonalized for initial guess.
 HarFok:  IExCor= 1009 AccDes= 0.00D+00 IRadAn=         5 IDoV= 1 UseB2=F ITyADJ=14
 ICtDFT=  3500011 ScaDFX=  1.000000  1.000000  1.000000  1.000000
 FoFCou: FMM=F IPFlag=           0 FMFlag=      100000 FMFlg1=           0
         NFxFlg=           0 DoJE=T BraDBF=F KetDBF=T FulRan=T
         wScrn=  0.000000 ICntrl=       500 IOpCl=  0 I1Cent=   200000004 NGrid=           0
         NMat0=    1 NMatS0=      1 NMatT0=    0 NMatD0=    1 NMtDS0=    0 NMtDT0=    0
 Petite list used in FoFCou.
 Requested convergence on RMS density matrix=1.00D-08 within 128 cycles.
 Requested convergence on MAX density matrix=1.00D-06.
 Requested convergence on             energy=1.00D-06.
 No special actions if energy rises.
 Inv3:  Mode=1 IEnd=    15417867.
 Iteration    1 A*A^-1 deviation from unit magnitude is 5.33D-15 for   2253.
 Iteration    1 A*A^-1 deviation from orthogonality  is 2.43D-15 for   2261   2105.
 Iteration    1 A^-1*A deviation from unit magnitude is 5.33D-15 for   2265.
 Iteration    1 A^-1*A deviation from orthogonality  is 2.27D-15 for   2261   1994.
 Error on total polarization charges =  0.01728
 SCF Done:  E(RM062X) =  -5595.04504228     A.U. after   14 cycles
            NFock= 14  Conv=0.18D-08     -V/T= 2.0006
 DoSCS=F DFT=T ScalE2(SS,OS)=  1.000000  1.000000
 Range of M.O.s used for correlation:     1   356
 NBasis=   357 NAE=    69 NBE=    69 NFC=     0 NFV=     0
 NROrb=    356 NOA=    69 NOB=    69 NVA=   287 NVB=   287

 **** Warning!!: The largest alpha MO coefficient is  0.13008718D+03

 Symmetrizing basis deriv contribution to polar:
 IMax=3 JMax=2 DiffMx= 0.00D+00
 D1PCM: PCM CHGder 1st derivatives, ID1Alg=3 FixD1E=F DoIter=F DoCFld=F I1PDM=0.
 Calling FoFJK, ICntrl=      2127 FMM=F ISym2X=1 I1Cent= 0 IOpClX= 0 NMat=1 NMatS=1 NMatT=0.
 ***** Axes restored to original set *****
 -------------------------------------------------------------------
 Center     Atomic                   Forces (Hartrees/Bohr)
 Number     Number              X              Y              Z
 -------------------------------------------------------------------
      1        6          -0.047660802   -0.000000000   -0.048391943
      2        6          -0.037121444    0.000000000    0.014808572
      3        6           0.009078805   -0.000000000    0.017836316
      4        6           0.018729386    0.000000000    0.012306983
      5        6           0.018415544   -0.000000000   -0.003716446
      6        6          -0.021725029    0.000000000   -0.028122272
      7        9           0.020103848   -0.000000000    0.011730258
      8        1          -0.048838750   -0.000000000    0.026374230
      9        1          -0.001395715    0.000000000    0.054625992
     10        1           0.047566505    0.000000000    0.027463759
     11        1           0.046666059    0.000000000   -0.028527306
     12        1          -0.001977857   -0.000000000   -0.055313314
     13        8           0.009657816    0.000000000    0.005550644
     14        6           0.048972523    0.000000000    0.028584973
     15        1          -0.029952105    0.052532834   -0.017435929
     16        1          -0.029952105   -0.052532834   -0.017435929
     17        1          -0.106440600   -0.691665943   -0.061455374
     18       35           0.106157262    0.691280074    0.061286080
     19        1          -0.106440600    0.691665943   -0.061455374
     20       35           0.106157262   -0.691280074    0.061286080
 -------------------------------------------------------------------
 Cartesian Forces:  Max     0.691665943 RMS     0.182960561
 -----------------------------------------------------------------------------------------------
                       Internal Coordinate Forces (Hartree/Bohr or radian)
  Cent   Atom   N1       Length/X         N2         Alpha/Y        N3         Beta/Z          J
 -----------------------------------------------------------------------------------------------
      1  C 
      2  C        1   0.036716(     1)
      3  C        2   0.097150(     2)      1   0.071893(    20)
      4  C        3   0.131194(     3)      2   0.222171(    21)      1   0.000000(    38)     0
      5  C        4   0.116700(     4)      3   0.252336(    22)      2   0.000000(    39)     0
      6  C        5   0.063275(     5)      4   0.149886(    23)      3   0.000000(    40)     0
      7  F        1  -0.021144(     6)      2  -0.000255(    24)      3  -0.000000(    41)     0
      8  H        2   0.055483(     7)      3   0.003038(    25)      4  -0.000000(    42)     0
      9  H        3   0.054626(     8)      4   0.002685(    26)      5   0.000000(    43)     0
     10  H        4   0.054926(     9)      5   0.000002(    27)      6   0.000000(    44)     0
     11  H        5   0.054678(    10)      6  -0.002640(    28)      1   0.000000(    45)     0
     12  H        6   0.055327(    11)      1  -0.002988(    29)      2  -0.000000(    46)     0
     13  O        7   0.001471(    12)      1   0.000008(    30)      3  -0.000000(    47)     0
     14  C       13   0.012610(    13)      1   0.000102(    31)      2  -0.000000(    48)     0
     15  H       14   0.062823(    14)      1   0.007229(    32)      2   0.000117(    49)     0
     16  H       14   0.062823(    15)      1   0.007229(    33)      2  -0.000117(    50)     0
     17  H        7  -0.000323(    16)      1   0.000427(    34)      2   0.000027(    51)     0
     18  Br      17   0.702063(    17)      7  -0.001276(    35)      1   0.000002(    52)     0
     19  H        7  -0.000323(    18)      1   0.000427(    36)      2  -0.000027(    53)     0
     20  Br      19   0.702063(    19)      7  -0.001276(    37)      1  -0.000002(    54)     0
 -----------------------------------------------------------------------------------------------
 Internal  Forces:  Max     0.702063410 RMS     0.148813036

 GradGradGradGradGradGradGradGradGradGradGradGradGradGradGradGradGradGrad
 Berny optimization.
 Search for a local minimum.
 Step number   2 out of a maximum of   29
 All quantities printed in internal units (Hartrees-Bohrs-Radians)
 Update second derivatives using D2CorN and points    1    2
 DE= -3.91D-01 DEPred=-3.74D-01 R= 1.04D+00
 TightC=F SS=  1.41D+00  RLast= 3.00D-01 DXNew= 5.0454D-01 9.0000D-01
 Trust test= 1.04D+00 RLast= 3.00D-01 DXMaxT set to 5.05D-01
 The second derivative matrix:
                          d1        d2        d3        d4        d5
           d1           0.89177
           d2          -0.03011   1.00626
           d3          -0.36533   0.41106   1.57860
           d4          -0.15416   0.02117   0.39803   0.99550
           d5           0.05500  -0.18236  -0.38100  -0.01511   0.95852
           d6           0.04581   0.04783   0.02959  -0.01656  -0.04450
           d7           0.00108   0.00097  -0.00223   0.00117   0.00210
           d8          -0.00056   0.00289   0.00300  -0.00151  -0.00055
           d9          -0.00086  -0.00205   0.00240   0.00372   0.00068
           d10          0.00318   0.00105  -0.00255   0.00028   0.00129
           d11         -0.01049  -0.00833   0.00179   0.00874   0.01141
           d12          0.00061   0.00069   0.00035  -0.00027  -0.00054
[...]
 Alpha  occ. eigenvalues --   -6.83993  -6.83993  -2.88113  -2.88112  -2.87744
 Alpha  occ. eigenvalues --   -2.87744  -2.87741  -2.87741  -2.86928  -2.86928
 Alpha  occ. eigenvalues --   -2.86928  -2.86928  -1.39734  -1.19319  -0.98397
 Alpha  occ. eigenvalues --   -0.88180  -0.88147  -0.86664  -0.86270  -0.72303
 Alpha  occ. eigenvalues --   -0.72201  -0.71879  -0.64538  -0.60463  -0.59199
 Alpha  occ. eigenvalues --   -0.58411  -0.58346  -0.54053  -0.52673  -0.50974
 Alpha  occ. eigenvalues --   -0.50268  -0.49953  -0.49421  -0.47847  -0.45276
 Alpha  occ. eigenvalues --   -0.44159  -0.41999  -0.36804  -0.36796  -0.36782
 Alpha  occ. eigenvalues --   -0.36758  -0.34944  -0.32790  -0.31947
 Alpha virt. eigenvalues --   -0.00787  -0.00479   0.00096   0.00667   0.00750
 Alpha virt. eigenvalues --    0.01339   0.01660   0.01676   0.02748   0.03312
 Alpha virt. eigenvalues --    0.03315   0.04158   0.04969   0.05613   0.05675
 Alpha virt. eigenvalues --    0.05896   0.06610   0.06826   0.07112   0.07934
 Alpha virt. eigenvalues --    0.08165   0.08536   0.10390   0.10566   0.10900
 Alpha virt. eigenvalues --    0.11080   0.12023   0.12519   0.12954   0.13011
 Alpha virt. eigenvalues --    0.13545   0.13560   0.14125   0.14613   0.14997
 Alpha virt. eigenvalues --    0.15334   0.15540   0.16303   0.16488   0.16727
 Alpha virt. eigenvalues --    0.16820   0.18026   0.18337   0.19295   0.19529
 Alpha virt. eigenvalues --    0.19950   0.20731   0.21814   0.22096   0.23135
 Alpha virt. eigenvalues --    0.23937   0.25057   0.25486   0.27723   0.29452
 Alpha virt. eigenvalues --    0.30028   0.30581   0.31271   0.31967   0.32370
 Alpha virt. eigenvalues --    0.32626   0.34180   0.37868   0.38346   0.38490
 Alpha virt. eigenvalues --    0.40035   0.40324   0.41133   0.41891   0.42572
 Alpha virt. eigenvalues --    0.44032   0.44635   0.46040   0.46775   0.47543
 Alpha virt. eigenvalues --    0.47983   0.51119   0.51273   0.51680   0.52831
 Alpha virt. eigenvalues --    0.54188   0.56300   0.56473   0.56874   0.57285
 Alpha virt. eigenvalues --    0.58349   0.59141   0.59269   0.59717   0.60289
 Alpha virt. eigenvalues --    0.61624   0.61702   0.63038   0.63569   0.64957
 Alpha virt. eigenvalues --    0.66220   0.66438   0.66504   0.67326   0.69113
 Alpha virt. eigenvalues --    0.69389   0.69553   0.70827   0.70887   0.71974
 Alpha virt. eigenvalues --    0.73844   0.75468   0.76613   0.77602   0.77768
 Alpha virt. eigenvalues --    0.79086   0.81079   0.82238   0.84058   0.87829
 Alpha virt. eigenvalues --    0.88251   0.88911   0.91598   0.93803   0.94942
 Alpha virt. eigenvalues --    0.95575   0.96205   0.96816   1.01065   1.04198
 Alpha virt. eigenvalues --    1.04437   1.05144   1.06609   1.07487   1.10337
 Alpha virt. eigenvalues --    1.11985   1.14284   1.14879   1.16436   1.17911
 Alpha virt. eigenvalues --    1.22507   1.24569   1.30889   1.33690   1.39948
 Alpha virt. eigenvalues --    1.44970   1.45489   1.45941   1.46047   1.48764
 Alpha virt. eigenvalues --    1.48890   1.49129   1.52676   1.53611   1.55320
 Alpha virt. eigenvalues --    1.56496   1.59911   1.60161   1.60801   1.62063
 Alpha virt. eigenvalues --    1.67403   1.67469   1.68201   1.68883   1.70725
 Alpha virt. eigenvalues --    1.73920   1.77197   1.77354   1.78033   1.79775
 Alpha virt. eigenvalues --    1.86200   1.86806   1.90227   1.91117   1.94342
 Alpha virt. eigenvalues --    1.94863   1.96233   1.96452   1.99057   2.00037
 Alpha virt. eigenvalues --    2.01596   2.03470   2.03723   2.05256   2.05277
 Alpha virt. eigenvalues --    2.06231   2.06848   2.08123   2.09481   2.10012
 Alpha virt. eigenvalues --    2.11295   2.11879   2.17315   2.23969   2.30137
 Alpha virt. eigenvalues --    2.30580   2.35007   2.43796   2.44288   2.47762
 Alpha virt. eigenvalues --    2.48471   2.50973   2.52402   2.52686   2.59602
 Alpha virt. eigenvalues --    2.61218   2.65218   2.66343   2.69671   2.72471
 Alpha virt. eigenvalues --    2.73163   2.73743   2.75015   2.75758   2.77670
 Alpha virt. eigenvalues --    2.78312   2.84542   2.85445   2.86046   2.88691
 Alpha virt. eigenvalues --    2.94210   2.94219   2.94298   2.97509   2.97978
 Alpha virt. eigenvalues --    3.13949   3.18181   3.25122   3.38530   3.39152
 Alpha virt. eigenvalues --    3.42491   3.48008   3.52872   3.55994   3.56280
 Alpha virt. eigenvalues --    3.66488   3.74455   3.78465   3.85547   3.93642
 Alpha virt. eigenvalues --    3.96067   4.02730   4.04932   4.08703   4.15767
 Alpha virt. eigenvalues --    4.18743   4.19621   4.27627   4.27664   4.28250
 Alpha virt. eigenvalues --    4.28577   4.32041   4.33724   4.34760   4.35566
 Alpha virt. eigenvalues --    4.49841   4.52227   4.85438   4.93484   5.09667
 Alpha virt. eigenvalues --    5.21300   5.78192   6.55170   6.58428   6.82413
 Alpha virt. eigenvalues --    6.83836   6.90167   7.61835   7.63388   7.64623
 Alpha virt. eigenvalues --    7.65332   7.66540   7.67448  23.66306  23.99513
 Alpha virt. eigenvalues --   24.01145  24.04981  24.15287  24.16699  24.27123
 Alpha virt. eigenvalues --   48.35272  48.36453  50.03763  66.94705 290.76475
 Alpha virt. eigenvalues --  290.78154 290.79664 290.80429 290.83561 290.84523
 Alpha virt. eigenvalues -- 1020.908311020.92427
          Condensed to atoms (all electrons):
               1          2          3          4          5          6
     1  C    9.180195  -0.693882  -1.198865   0.136991  -1.037009  -0.413573
     2  C   -0.693882   8.902834   1.133799  -0.495281  -0.094816  -2.945126
     3  C   -1.198865   1.133799   5.951422   0.375281  -0.128697  -0.225418
     4  C    0.136991  -0.495281   0.375281   6.067091   0.349815  -0.403209
     5  C   -1.037009  -0.094816  -0.128697   0.349815   5.846158   0.983107
     6  C   -0.413573  -2.945126  -0.225418  -0.403209   0.983107   8.821486
     7  F    0.584213  -0.229642  -0.044684   0.010073  -0.039978  -0.230155
     8  H   -0.085351   0.484172  -0.042811  -0.002069   0.006959  -0.039109
     9  H   -0.010188  -0.033999   0.402950  -0.081807   0.009519   0.029254
    10  H    0.038736  -0.011013  -0.072008   0.467061  -0.069436  -0.008570
    11  H   -0.008689   0.031314   0.010122  -0.082615   0.401434  -0.036554
    12  H   -0.081964  -0.040484   0.004638  -0.000422  -0.043341   0.482456
    13  O    0.017230  -0.006505  -0.000724   0.000021  -0.000676  -0.006839
    14  C    0.003540  -0.000847  -0.000204   0.000128  -0.000162  -0.000419
    15  H   -0.000390   0.000107   0.000024  -0.000009   0.000021   0.000091
    16  H   -0.000390   0.000107   0.000024  -0.000009   0.000021   0.000091
    17  H   -0.079085   0.018513   0.015920  -0.007689   0.013521   0.014476
    18  Br   0.166549  -0.036726  -0.036532   0.019007  -0.033423  -0.031685
    19  H   -0.079085   0.018513   0.015920  -0.007689   0.013521   0.014476
    20  Br   0.166549  -0.036726  -0.036532   0.019007  -0.033423  -0.031685
               7          8          9         10         11         12
     1  C    0.584213  -0.085351  -0.010188   0.038736  -0.008689  -0.081964
     2  C   -0.229642   0.484172  -0.033999  -0.011013   0.031314  -0.040484
     3  C   -0.044684  -0.042811   0.402950  -0.072008   0.010122   0.004638
     4  C    0.010073  -0.002069  -0.081807   0.467061  -0.082615  -0.000422
     5  C   -0.039978   0.006959   0.009519  -0.069436   0.401434  -0.043341
     6  C   -0.230155  -0.039109   0.029254  -0.008570  -0.036554   0.482456
     7  F    9.106011  -0.002864  -0.001305   0.000649  -0.001318  -0.003016
     8  H   -0.002864   0.444974  -0.003780   0.000850   0.000855   0.000369
     9  H   -0.001305  -0.003780   0.445803  -0.009509   0.002145   0.000833
    10  H    0.000649   0.000850  -0.009509   0.458596  -0.009271   0.000825
    11  H   -0.001318   0.000855   0.002145  -0.009271   0.445064  -0.003279
    12  H   -0.003016   0.000369   0.000833   0.000825  -0.003279   0.443785
    13  O    0.002275   0.000334  -0.000009   0.000002  -0.000009   0.000367
    14  C    0.000094   0.000046  -0.000016   0.000005  -0.000016   0.000042
    15  H   -0.000001  -0.000014   0.000001  -0.000000   0.000001  -0.000014
    16  H   -0.000001  -0.000014   0.000001  -0.000000   0.000001  -0.000014
    17  H   -0.034313   0.001240   0.001798  -0.001023   0.001813   0.001370
    18  Br   0.004412   0.000389  -0.002635   0.001487  -0.002622   0.000251
    19  H   -0.034313   0.001240   0.001798  -0.001023   0.001813   0.001370
    20  Br   0.004412   0.000389  -0.002635   0.001487  -0.002622   0.000251
              13         14         15         16         17         18
     1  C    0.017230   0.003540  -0.000390  -0.000390  -0.079085   0.166549
     2  C   -0.006505  -0.000847   0.000107   0.000107   0.018513  -0.036726
     3  C   -0.000724  -0.000204   0.000024   0.000024   0.015920  -0.036532
     4  C    0.000021   0.000128  -0.000009  -0.000009  -0.007689   0.019007
     5  C   -0.000676  -0.000162   0.000021   0.000021   0.013521  -0.033423
     6  C   -0.006839  -0.000419   0.000091   0.000091   0.014476  -0.031685
     7  F    0.002275   0.000094  -0.000001  -0.000001  -0.034313   0.004412
     8  H    0.000334   0.000046  -0.000014  -0.000014   0.001240   0.000389
     9  H   -0.000009  -0.000016   0.000001   0.000001   0.001798  -0.002635
    10  H    0.000002   0.000005  -0.000000  -0.000000  -0.001023   0.001487
    11  H   -0.000009  -0.000016   0.000001   0.000001   0.001813  -0.002622
    12  H    0.000367   0.000042  -0.000014  -0.000014   0.001370   0.000251
    13  O    8.155113   0.296775  -0.082307  -0.082307   0.009401  -0.004434
    14  C    0.296775   4.866660   0.399032   0.399032  -0.003907   0.001391
    15  H   -0.082307   0.399032   0.644738  -0.098138   0.000525  -0.000140
    16  H   -0.082307   0.399032  -0.098138   0.644738   0.000160  -0.000005
    17  H    0.009401  -0.003907   0.000525   0.000160   0.632198   0.233213
    18  Br  -0.004434   0.001391  -0.000140  -0.000005   0.233213  34.871404
    19  H    0.009401  -0.003907   0.000160   0.000525   0.007556  -0.005688
    20  Br  -0.004434   0.001391  -0.000005  -0.000140  -0.005688   0.002756
              19         20
     1  C   -0.079085   0.166549
     2  C    0.018513  -0.036726
     3  C    0.015920  -0.036532
     4  C   -0.007689   0.019007
     5  C    0.013521  -0.033423
     6  C    0.014476  -0.031685
     7  F   -0.034313   0.004412
     8  H    0.001240   0.000389
     9  H    0.001798  -0.002635
    10  H   -0.001023   0.001487
    11  H    0.001813  -0.002622
    12  H    0.001370   0.000251
    13  O    0.009401  -0.004434
    14  C   -0.003907   0.001391
    15  H    0.000160  -0.000005
    16  H    0.000525  -0.000140
    17  H    0.007556  -0.005688
    18  Br  -0.005688   0.002756
    19  H    0.632198   0.233213
    20  Br   0.233213  34.871404
 Mulliken charges:
               1
     1  C   -0.605529
     2  C    0.035685
     3  C   -0.123625
     4  C   -0.363677
     5  C   -0.143115
     6  C    0.026908
     7  F   -0.090550
     8  H    0.234193
     9  H    0.251779
    10  H    0.212157
    11  H    0.252435
    12  H    0.235979
    13  O   -0.302676
    14  C    0.041343
    15  H    0.136316
    16  H    0.136316
    17  H    0.180000
    18  Br  -0.146969
    19  H    0.180000
    20  Br  -0.146969
 Sum of Mulliken charges =  -0.00000
 Mulliken charges with hydrogens summed into heavy atoms:
               1
     1  C   -0.605529
     2  C    0.269878
     3  C    0.128154
     4  C   -0.151520
     5  C    0.109320
     6  C    0.262887
     7  F   -0.090550
    13  O   -0.302676
    14  C    0.313975
    18  Br   0.033031
    20  Br   0.033031
 APT charges:
               1
     1  C   -0.860427
     2  C   -0.391111
     3  C   -0.286380
     4  C   -0.933694
     5  C   -0.295371
     6  C   -0.417721
     7  F   -0.102999
     8  H    0.356520
     9  H    0.787501
    10  H    0.971666
    11  H    0.789738
    12  H    0.349072
    13  O   -1.052557
    14  C   -0.172878
    15  H    0.625944
    16  H    0.625944
    17  H   -0.223328
    18  Br   0.226705
    19  H   -0.223328
    20  Br   0.226705
 Sum of APT charges =  -0.00000
 APT charges with hydrogens summed into heavy atoms:
               1
     1  C   -0.860427
     2  C   -0.034591
     3  C    0.501121
     4  C    0.037972
     5  C    0.494367
     6  C   -0.068648
     7  F   -0.102999
    13  O   -1.052557
    14  C    1.079009
    18  Br   0.003376
    20  Br   0.003376
 Electronic spatial extent (au):  <R**2>=           5836.5149
 Charge=             -0.0000 electrons
 Dipole moment (field-independent basis, Debye):
    X=             -0.0071    Y=              0.9712    Z=              0.0000  Tot=              0.9713
 Quadrupole moment (field-independent basis, Debye-Ang):
   XX=            -84.9412   YY=            -53.7162   ZZ=           -105.8825
   XY=              0.1711   XZ=             -0.0000   YZ=              0.0000
 Traceless Quadrupole moment (field-independent basis, Debye-Ang):
   XX=             -3.4279   YY=             27.7971   ZZ=            -24.3692
   XY=              0.1711   XZ=             -0.0000   YZ=              0.0000
 Octapole moment (field-independent basis, Debye-Ang**2):
  XXX=             -0.2629  YYY=            183.2734  ZZZ=              0.0000  XYY=             -0.1291
  XXY=              0.0924  XXZ=              0.0000  XZZ=             -0.1730  YZZ=             23.7681
  YYZ=             -0.0000  XYZ=             -0.0000
 Hexadecapole moment (field-independent basis, Debye-Ang**3):
 XXXX=           -313.8589 YYYY=          -1787.2752 ZZZZ=          -2899.1177 XXXY=              0.8303
 XXXZ=              0.0000 YYYX=              2.9417 YYYZ=             -0.0000 ZZZX=              0.0000
 ZZZY=              0.0000 XXYY=           -537.0374 XXZZ=           -571.7716 YYZZ=          -1050.7885
 XXYZ=              0.0000 YYXZ=              0.0000 ZZXY=              0.5119
 N-N= 1.042552406170D+03 E-N=-1.544026639720D+04  KE= 5.587803596898D+03
 Symmetry A'   KE= 2.996648733777D+03
 Symmetry A"   KE= 2.591154863121D+03
  Exact polarizability:   0.000   0.000   0.000   0.000   0.000   0.000
 Approx polarizability: 144.970   0.296 163.938  -0.000   0.000 122.836
 Rotating derivatives to standard orientation.
 ***** Axes restored to original set *****
 -------------------------------------------------------------------
 Center     Atomic                   Forces (Hartrees/Bohr)
 Number     Number              X              Y              Z
 -------------------------------------------------------------------
      1        6           0.017444178    0.000000000   -0.001735485
      2        6          -0.018090286   -0.000000000    0.005525837
      3        6           0.006314746    0.000000000    0.000974628
      4        6           0.004322384    0.000000000   -0.004542981
      5        6          -0.007351557   -0.000000000    0.002291001
      6        6           0.001269796    0.000000000   -0.000892690
      7        9          -0.000219636    0.000000000    0.001827593
      8        1          -0.000938649   -0.000000000   -0.001625806
      9        1          -0.001248886   -0.000000000   -0.000000007
     10        1           0.000191402    0.000000000   -0.000331497
     11        1          -0.000649582   -0.000000000   -0.001125083
     12        1          -0.000424153   -0.000000000    0.000009170
     13        8           0.000032271    0.000000000   -0.000056821
     14        6           0.007212448    0.000000000    0.004399605
     15        1          -0.003621259   -0.002438415   -0.002174034
     16        1          -0.003621259    0.002438415   -0.002174034
     17        1          -0.000631518    0.000002099   -0.000365564
     18       35           0.000320538   -0.000064996    0.000180866
     19        1          -0.000631518   -0.000002099   -0.000365564
     20       35           0.000320538    0.000064996    0.000180866
 -------------------------------------------------------------------
 Cartesian Forces:  Max     0.018090286 RMS     0.003953349
 -----------------------------------------------------------------------------------------------
                       Internal Coordinate Forces (Hartree/Bohr or radian)
  Cent   Atom   N1       Length/X         N2         Alpha/Y        N3         Beta/Z          J
 -----------------------------------------------------------------------------------------------
      1  C 
      2  C        1  -0.000000(     1)
      3  C        2   0.000000(     2)      1  -0.039336(    20)
      4  C        3   0.000001(     3)      2  -0.031410(    21)      1  -0.000000(    38)     0
      5  C        4   0.000001(     4)      3  -0.019207(    22)      2  -0.000000(    39)     0
      6  C        5  -0.000000(     5)      4   0.000906(    23)      3   0.000000(    40)     0
      7  F        1   0.000000(     6)      2  -0.004269(    24)      3   0.000000(    41)     0
      8  H        2  -0.000000(     7)      3   0.003846(    25)      4  -0.000000(    42)     0
      9  H        3  -0.000000(     8)      4   0.002555(    26)      5  -0.000000(    43)     0
     10  H        4   0.000000(     9)      5  -0.000783(    27)      6   0.000000(    44)     0
     11  H        5  -0.000000(    10)      6  -0.002658(    28)      1  -0.000000(    45)     0
     12  H        6  -0.000000(    11)      1  -0.000869(    29)      2  -0.000000(    46)     0
     13  O        7   0.000001(    12)      1  -0.000039(    30)      3  -0.000000(    47)     0
     14  C       13   0.000000(    13)      1   0.000109(    31)      2  -0.000000(    48)     0
     15  H       14  -0.000000(    14)      1   0.010142(    32)      2   0.000118(    49)     0
     16  H       14  -0.000000(    15)      1   0.010142(    33)      2  -0.000118(    50)     0
     17  H        7   0.000001(    16)      1   0.000478(    34)      2   0.000027(    51)     0
     18  Br      17  -0.000000(    17)      7  -0.001006(    35)      1   0.000003(    52)     0
     19  H        7   0.000001(    18)      1   0.000478(    36)      2  -0.000027(    53)     0
     20  Br      19  -0.000000(    19)      7  -0.001006(    37)      1  -0.000003(    54)     0
 -----------------------------------------------------------------------------------------------
 Internal  Forces:  Max     0.039336328 RMS     0.007649637
 1\1\GINC-R820\POpt\RM062X\6-311++G(d,p)\C7H9Br2F1O1\ZJXU\02-Apr-2024\1
 \\# m062x 6-311++G(d,p) opt=(recalc=5,z-matrix) scrf=(solvent=water)\\
 test\\0,1\C\C,1,d1\C,2,d2,1,120.\C,3,d3,2,120.,1,0.,0\C,4,d4,3,120.,2,
 0.,0\C,5,d5,4,120.,3,0.,0\F,1,d6,2,120.,3,180.,0\H,2,d7,3,120.,4,180.,
 0\H,3,d8,4,120.,5,180.,0\H,4,d9,5,120.,6,180.,0\H,5,d10,6,120.,1,180.,
 0\H,6,d11,1,120.,2,180.,0\O,7,d12,1,179.9,3,180.,0\C,13,d13,1,179.9,2,
 180.,0\H,14,d14,1,120.,2,90.,0\H,14,d15,1,120.,2,-90.,0\H,7,d16,1,100.
 ,2,90.,0\Br,17,d17,7,160.,1,0.,0\H,7,d18,1,100.,2,-90.,0\Br,19,d19,7,1
 60.,1,0.,0\\d1=1.37797372\d2=1.3830406\d3=1.3875395\d4=1.39597935\d5=1
 .3996648\d6=1.35945861\d7=1.0841194\d8=1.08264946\d9=1.08301178\d10=1.
 08257818\d11=1.08334502\d12=3.58739697\d13=1.20483577\d14=1.10054353\d
 15=1.10054353\d16=2.14042895\d17=1.42516011\d18=2.14042895\d19=1.42516
 011\\Version=ES64L-G16RevB.01\State=1-A'\HF=-5595.4826447\RMSD=6.548e-
 09\RMSF=3.953e-03\Dipole=-0.3323217,0.,-0.1886264\Polar=0.,0.,0.,0.,0.
 ,0.\Quadrupole=14.7525702,-18.1179183,3.3653481,0.,10.1160089,0.\PG=CS
  [SG(C7H5F1O1),X(H4Br2)]\\@


 LAW OF COMPENSATION:
      NO CALCULATION IS EVER A COMPLETE FAILURE; IT 
      CAN ALWAYS SERVE AS A BAD EXAMPLE.

                                           -- ANON
 Job cpu time:       0 days  9 hours 12 minutes 17.6 seconds.
 Elapsed time:       0 days  2 hours 18 minutes 11.6 seconds.
 File lengths (MBytes):  RWF=    425 Int=      0 D2E=      0 Chk=     22 Scr=      1
 Normal termination of Gaussian 16 at Tue Apr  2 14:27:40 2024.
