 Entering Gaussian System, Link 0=g16
 Input=model_H3.gjf
 Output=model_H3.log
 Initial command:
 /home/lywu/software/g16/l1.exe "/home/lywu/software/g16/scr/Gau-5929.inp" -scrdir="/home/lywu/software/g16/scr/"
 Entering Link 1 = /home/lywu/software/g16/l1.exe PID=      5937.
  
 Copyright (c) 1988-2017, Gaussian, Inc.  All Rights Reserved.
  
 This is part of the Gaussian(R) 16 program.  It is based on
 the Gaussian(R) 09 system (copyright 2009, Gaussian, Inc.),
 the Gaussian(R) 03 system (copyright 2003, Gaussian, Inc.),
 the Gaussian(R) 98 system (copyright 1998, Gaussian, Inc.),
 the Gaussian(R) 94 system (copyright 1995, Gaussian, Inc.),
 the Gaussian 92(TM) system (copyright 1992, Gaussian, Inc.),
 the Gaussian 90(TM) system (copyright 1990, Gaussian, Inc.),
 the Gaussian 88(TM) system (copyright 1988, Gaussian, Inc.),
 the Gaussian 86(TM) system (copyright 1986, Carnegie Mellon
 University), and the Gaussian 82(TM) system (copyright 1983,
 Carnegie Mellon University). Gaussian is a federally registered
 trademark of Gaussian, Inc.
  
 This software contains proprietary and confidential information,
 including trade secrets, belonging to Gaussian, Inc.
  
 This software is provided under written license and may be
 used, copied, transmitted, or stored only in accord with that
 written license.
  
 The following legend is applicable only to US Government
 contracts under FAR:
  
                    RESTRICTED RIGHTS LEGEND
  
 Use, reproduction and disclosure by the US Government is
 subject to restrictions as set forth in subparagraphs (a)
 and (c) of the Commercial Computer Software - Restricted
 Rights clause in FAR 52.227-19.
  
 Gaussian, Inc.
 340 Quinnipiac St., Bldg. 40, Wallingford CT 06492
  
  
 ---------------------------------------------------------------
 Warning -- This program may not be used in any manner that
 competes with the business of Gaussian, Inc. or will provide
 assistance to any competitor of Gaussian, Inc.  The licensee
 of this program is prohibited from giving any competitor of
 Gaussian, Inc. access to this program.  By using this program,
 the user acknowledges that Gaussian, Inc. is engaged in the
 business of creating and licensing software in the field of
 computational chemistry and represents and warrants to the
 licensee that it is not a competitor of Gaussian, Inc. and that
 it will not use this program in any manner prohibited above.
 ---------------------------------------------------------------
  

 Cite this work as:
 Gaussian 16, Revision B.01,
 M. J. Frisch, G. W. Trucks, H. B. Schlegel, G. E. Scuseria, 
 M. A. Robb, J. R. Cheeseman, G. Scalmani, V. Barone, 
 G. A. Petersson, H. Nakatsuji, X. Li, M. Caricato, A. V. Marenich, 
 J. Bloino, B. G. Janesko, R. Gomperts, B. Mennucci, H. P. Hratchian, 
 J. V. Ortiz, A. F. Izmaylov, J. L. Sonnenberg, D. Williams-Young, 
 F. Ding, F. Lipparini, F. Egidi, J. Goings, B. Peng, A. Petrone, 
 T. Henderson, D. Ranasinghe, V. G. Zakrzewski, J. Gao, N. Rega, 
 G. Zheng, W. Liang, M. Hada, M. Ehara, K. Toyota, R. Fukuda, 
 J. Hasegawa, M. Ishida, T. Nakajima, Y. Honda, O. Kitao, H. Nakai, 
 T. Vreven, K. Throssell, J. A. Montgomery, Jr., J. E. Peralta, 
 F. Ogliaro, M. J. Bearpark, J. J. Heyd, E. N. Brothers, K. N. Kudin, 
 V. N. Staroverov, T. A. Keith, R. Kobayashi, J. Normand, 
 K. Raghavachari, A. P. Rendell, J. C. Burant, S. S. Iyengar, 
 J. Tomasi, M. Cossi, J. M. Millam, M. Klene, C. Adamo, R. Cammi, 
 J. W. Ochterski, R. L. Martin, K. Morokuma, O. Farkas, 
 J. B. Foresman, and D. J. Fox, Gaussian, Inc., Wallingford CT, 2016.
 
 ******************************************
 Gaussian 16:  ES64L-G16RevB.01 20-Dec-2017
                 6-Jan-2025 
 ******************************************
 %mem=4GB
 %nproc=4
 Will use up to    4 processors via shared memory.
 ----------------------------------------------------------------------
 # m062x 6-311++G(d,p) opt=(z-matrix,recalc=5,loose) scrf=(solvent=dich
 loroethane)
 ----------------------------------------------------------------------
 1/7=-1,10=7,18=40,26=3,38=1,71=5/1,3;
 2/12=2,17=6,18=5,29=3,40=1/2;
 3/5=4,6=6,7=1111,11=2,25=1,30=1,70=2201,71=2,72=10,74=-55,140=1/1,2,3;
 4//1;
 5/5=2,38=5,53=10/2;
 8/6=4,10=90,11=11/1;
 11/6=1,8=1,9=11,15=111,16=1/1,2,10;
 10/6=1/2;
 6/7=2,8=2,9=2,10=2,28=1/1;
 7/10=1,25=1/1,2,3,16;
 1/7=-1,10=7,18=40,26=3,71=5/3(3);
 2/29=3/2;
 7/9=1,25=1,44=-1/16;
 99//99;
 2/29=3/2;
 3/5=4,6=6,7=1111,11=2,25=1,30=1,70=2205,71=2,72=10,74=-55,140=1/1,2,3;
 4/5=5,16=3,69=1/1;
 5/5=2,38=5,53=10/2;
 8/6=4,10=90,11=11/1;
 11/6=1,8=1,9=11,15=111,16=1/1,2,10;
 10/6=1/2;
 7/10=1,25=1/1,2,3,16;
 1/7=-1,18=40,26=3,71=5/3(-8);
 2/29=3/2;
 6/7=2,8=2,9=2,10=2,19=2,28=1/1;
 7/9=1,25=1,44=-1/16;
 99/9=1/99;
 ----
 test
 ----
 Symbolic Z-matrix:
 Charge =  0 Multiplicity = 1
 C1
 C2                   1    d1
 C3                   2    d2       1     120. 
 C4                   3    d3       2     120.     1     0.       0
 C5                   4    d4       3     120.     2     0.       0
 C6                   5    d5       4     120.     3     0.       0
 F7                   1    d6       2     120.     3     180.     0
 H8                   2    d7       3     120.     4     180.     0
 H9                   3    d8       4     120.     5     180.     0
 H10                  4    d9       5     120.     6     180.     0
 H11                  5    d10      6     120.     1     180.     0
 H12                  6    d11      1     120.     2     180.     0
 O13                  7    d12      1     179.9    3     180.     0
 C14                  13   d13      1     179.9    2     180.     0
 H15                  14   d14      1     120.     2     90.      0
 H16                  14   d15      1     120.     2    -90.      0
 H17                  7    d16      1     100.     2     90.      0
 Cl18                 17   d17      7     160.     1     0.       0
 H19                  7    d18      1     100.     2    -30.      0
 Cl20                 19   d19      7     160.     1     0.       0
 H21                  7    d18      1     100.     2    -150.     0
 Cl22                 21   d19      7     160.     1     0.       0
       Variables:
  d1                    1.3                      
  d2                    1.3                      
  d3                    1.3                      
  d4                    1.3                      
  d5                    1.3                      
  d6                    1.4                      
  d7                    1.                       
  d8                    1.                       
  d9                    1.                       
  d10                   1.                       
  d11                   1.                       
  d12                   2.8                      
  d13                   1.2                      
  d14                   1.                       
  d15                   1.                       
  d16                   2.3                      
  d17                   0.9                      
  d18                   2.3                      
  d19                   0.9                      
 

 GradGradGradGradGradGradGradGradGradGradGradGradGradGradGradGradGradGrad
 Berny optimization.
 Initialization pass.
                       ----------------------------
                       !    Initial Parameters    !
                       ! (Angstroms and Degrees)  !
 ----------------------                            ----------------------
 !      Name          Value   Derivative information (Atomic Units)     !
 ------------------------------------------------------------------------
 !       d1          1.3      calculate D2E/DX2 analytically            !
 !       d2          1.3      calculate D2E/DX2 analytically            !
 !       d3          1.3      calculate D2E/DX2 analytically            !
 !       d4          1.3      calculate D2E/DX2 analytically            !
 !       d5          1.3      calculate D2E/DX2 analytically            !
 !       d6          1.4      calculate D2E/DX2 analytically            !
 !       d7          1.0      calculate D2E/DX2 analytically            !
 !       d8          1.0      calculate D2E/DX2 analytically            !
 !       d9          1.0      calculate D2E/DX2 analytically            !
 !       d10         1.0      calculate D2E/DX2 analytically            !
 !       d11         1.0      calculate D2E/DX2 analytically            !
 !       d12         2.8      calculate D2E/DX2 analytically            !
 !       d13         1.2      calculate D2E/DX2 analytically            !
 !       d14         1.0      calculate D2E/DX2 analytically            !
 !       d15         1.0      calculate D2E/DX2 analytically            !
 !       d16         2.3      calculate D2E/DX2 analytically            !
 !       d17         0.9      calculate D2E/DX2 analytically            !
 !       d18         2.3      calculate D2E/DX2 analytically            !
 !       d19         0.9      calculate D2E/DX2 analytically            !
 ------------------------------------------------------------------------
 Trust Radius=3.00D-01 FncErr=1.00D-07 GrdErr=1.00D-06 EigMax=2.50D+02 EigMin=1.00D-04
 Number of steps in this run=     29 maximum allowed number of steps=    100.
 GradGradGradGradGradGradGradGradGradGradGradGradGradGradGradGradGradGrad

 ---------------------------------------------------------------------------------------------------
                            Z-MATRIX (ANGSTROMS AND DEGREES)
   CD    Cent   Atom    N1       Length/X        N2       Alpha/Y        N3        Beta/Z          J
 ---------------------------------------------------------------------------------------------------
      1      1  C 
      2      2  C        1   1.300000(     1)
      3      3  C        2   1.300000(     2)      1  120.000(    22)
      4      4  C        3   1.300000(     3)      2  120.000(    23)      1    0.000(    42)      0
      5      5  C        4   1.300000(     4)      3  120.000(    24)      2    0.000(    43)      0
      6      6  C        5   1.300000(     5)      4  120.000(    25)      3    0.000(    44)      0
      7      7  F        1   1.400000(     6)      2  120.000(    26)      3  180.000(    45)      0
      8      8  H        2   1.000000(     7)      3  120.000(    27)      4  180.000(    46)      0
      9      9  H        3   1.000000(     8)      4  120.000(    28)      5  180.000(    47)      0
     10     10  H        4   1.000000(     9)      5  120.000(    29)      6  180.000(    48)      0
     11     11  H        5   1.000000(    10)      6  120.000(    30)      1  180.000(    49)      0
     12     12  H        6   1.000000(    11)      1  120.000(    31)      2  180.000(    50)      0
     13     13  O        7   2.800000(    12)      1  179.900(    32)      3  180.000(    51)      0
     14     14  C       13   1.200000(    13)      1  179.900(    33)      2  180.000(    52)      0
     15     15  H       14   1.000000(    14)      1  120.000(    34)      2   90.000(    53)      0
     16     16  H       14   1.000000(    15)      1  120.000(    35)      2  -90.000(    54)      0
     17     17  H        7   2.300000(    16)      1  100.000(    36)      2   90.000(    55)      0
     18     18  Cl      17   0.900000(    17)      7  160.000(    37)      1    0.000(    56)      0
     19     19  H        7   2.300000(    18)      1  100.000(    38)      2  -30.000(    57)      0
     20     20  Cl      19   0.900000(    19)      7  160.000(    39)      1    0.000(    58)      0
     21     21  H        7   2.300000(    20)      1  100.000(    40)      2 -150.000(    59)      0
     22     22  Cl      21   0.900000(    21)      7  160.000(    41)      1    0.000(    60)      0
 ---------------------------------------------------------------------------------------------------
                         Z-Matrix orientation:                         
 ---------------------------------------------------------------------
 Center     Atomic      Atomic             Coordinates (Angstroms)
 Number     Number       Type             X           Y           Z
 ---------------------------------------------------------------------
      1          6           0        0.000000    0.000000    0.000000
      2          6           0        0.000000    0.000000    1.300000
      3          6           0        1.125833    0.000000    1.950000
      4          6           0        2.251666    0.000000    1.300000
      5          6           0        2.251666    0.000000   -0.000000
      6          6           0        1.125833    0.000000   -0.650000
      7          9           0       -1.212436   -0.000000   -0.700000
      8          1           0       -0.866025   -0.000000    1.800000
      9          1           0        1.125833   -0.000000    2.950000
     10          1           0        3.117691   -0.000000    1.800000
     11          1           0        3.117691   -0.000000   -0.500000
     12          1           0        1.125833   -0.000000   -1.650000
     13          8           0       -3.634860   -0.000000   -2.104230
     14          6           0       -4.672340   -0.000000   -2.707251
     15          1           0       -5.104965    0.866025   -2.957922
     16          1           0       -5.104965   -0.866025   -2.957922
     17          1           0       -1.558318    2.265058   -0.899695
     18         17           0       -1.422973    3.151385   -0.821554
     19          1           0       -2.539117   -1.132529    0.799098
     20         17           0       -2.787562   -1.575692    1.541985
     21          1           0       -0.577519   -1.132529   -2.598489
     22         17           0       -0.058383   -1.575692   -3.185092
 ---------------------------------------------------------------------
                    Distance matrix (angstroms):
                    1          2          3          4          5
     1  C    0.000000
     2  C    1.300000   0.000000
     3  C    2.251666   1.300000   0.000000
     4  C    2.600000   2.251666   1.300000   0.000000
     5  C    2.251666   2.600000   2.251666   1.300000   0.000000
     6  C    1.300000   2.251666   2.600000   2.251666   1.300000
     7  F    1.400000   2.338803   3.534119   4.000000   3.534119
     8  H    1.997498   1.000000   1.997498   3.157531   3.600000
     9  H    3.157531   1.997498   1.000000   1.997498   3.157531
    10  H    3.600000   3.157531   1.997498   1.000000   1.997498
    11  H    3.157531   3.600000   3.157531   1.997498   1.000000
    12  H    1.997498   3.157531   3.600000   3.157531   1.997498
    13  O    4.199999   4.980059   6.253077   6.799997   6.251317
    14  C    5.399997   6.155390   7.436988   7.999995   7.434452
    15  H    5.963218   6.703772   7.978755   8.543999   7.976172
    16  H    5.963218   6.703772   7.978755   8.543999   7.976172
    17  H    2.892800   3.521009   4.522822   4.948245   4.522822
    18  Cl   3.554016   4.056731   4.910107   5.285375   4.910107
    19  H    2.892800   2.825003   4.004879   4.948245   4.987262
    20  Cl   3.554016   3.211210   4.238390   5.285375   5.500395
    21  H    2.892800   4.100532   4.987262   4.948245   4.004879
    22  Cl   3.554016   4.754184   5.500395   5.285375   4.238390
                    6          7          8          9         10
     6  C    0.000000
     7  F    2.338803   0.000000
     8  H    3.157531   2.523886   0.000000
     9  H    3.600000   4.334743   2.300000   0.000000
    10  H    3.157531   5.000000   3.983717   2.300000   0.000000
    11  H    1.997498   4.334743   4.600000   3.983717   2.300000
    12  H    1.000000   2.523886   3.983717   4.600000   3.983717
    13  O    4.977849   2.800000   4.786382   6.943301   7.799997
    14  C    6.152324   3.999999   5.899436   8.100821   8.999995
    15  H    6.700697   4.582575   6.430896   8.629970   9.539387
    16  H    6.700697   4.582575   6.430896   8.629970   9.539387
    17  H    3.521009   2.300000   3.591394   5.211076   5.855246
    18  Cl   4.056731   3.160748   4.136902   5.536448   6.117303
    19  H    4.100532   2.300000   2.254698   4.397824   5.855246
    20  Cl   4.754184   3.160748   2.498336   4.447469   6.117303
    21  H    2.825003   2.300000   4.551105   5.913523   5.855246
    22  Cl   3.211210   3.160748   5.290202   6.443953   6.117303
                   11         12         13         14         15
    11  H    0.000000
    12  H    2.300000   0.000000
    13  O    6.940497   4.782313   0.000000
    14  C    8.096700   5.893776   1.200000   0.000000
    15  H    8.625744   6.425224   1.907878   1.000000   0.000000
    16  H    8.625744   6.425224   1.907878   1.000000   1.732051
    17  H    5.211076   3.591394   3.300517   4.253807   4.332700
    18  Cl   5.536448   4.136902   4.058193   4.903618   4.831563
    19  H    5.913523   4.551105   3.303421   4.257669   4.969204
    20  Cl   6.443953   5.290202   4.061478   4.908278   5.619742
    21  H    4.397824   2.254698   3.297612   4.249942   4.961973
    22  Cl   4.447469   2.498336   4.054905   4.898953   5.610845
                   16         17         18         19         20
    16  H    0.000000
    17  H    5.159329   0.000000
    18  Cl   5.853266   0.900000   0.000000
    19  H    4.557389   3.923195   4.714256   0.000000
    20  Cl   5.111080   4.714256   5.458359   0.900000   0.000000
    21  H    4.549503   3.923195   4.714256   3.923195   4.714256
    22  Cl   5.101296   4.714256   5.458359   4.714256   5.458359
                   21         22
    21  H    0.000000
    22  Cl   0.900000   0.000000
 Stoichiometry    C7H10Cl3FO
 Framework group  C1[X(C7H10Cl3FO)]
 Deg. of freedom    60
 Full point group                 C1      NOp   1
 Largest Abelian subgroup         C1      NOp   1
 Largest concise Abelian subgroup C1      NOp   1
                         Standard orientation:                         
 ---------------------------------------------------------------------
 Center     Atomic      Atomic             Coordinates (Angstroms)
 Number     Number       Type             X           Y           Z
 ---------------------------------------------------------------------
      1          6           0       -1.033304   -0.001031    0.000000
      2          6           0       -1.685405    1.123586    0.000000
      3          6           0       -2.985402    1.121160    0.000000
      4          6           0       -3.633300   -0.005884    0.000000
      5          6           0       -2.981200   -1.130502    0.000000
      6          6           0       -1.681202   -1.128076    0.000000
      7          9           0        0.366693    0.001582    0.000000
      8          1           0       -1.187022    1.990544    0.000000
      9          1           0       -3.487018    1.986251    0.000000
     10          1           0       -4.633298   -0.007751    0.000000
     11          1           0       -3.479582   -1.997459    0.000000
     12          1           0       -1.179586   -1.993166    0.000000
     13          8           0        3.166693    0.001921    0.000000
     14          6           0        4.366692    0.000670    0.000000
     15          1           0        4.866692    0.000828    0.866025
     16          1           0        4.866692    0.000828   -0.866025
     17          1           0        0.766083    0.002327    2.265058
     18         17           0        0.609800    0.002035    3.151385
     19          1           0        0.762422    1.963921   -1.132529
     20         17           0        0.604706    2.731210   -1.575692
     21          1           0        0.769745   -1.959267   -1.132529
     22         17           0        0.614894   -2.727139   -1.575692
 ---------------------------------------------------------------------
 Rotational constants (GHZ):           0.4449902           0.3342099           0.3183525
 Standard basis: 6-311++G(d,p) (5D, 7F)
 There are   370 symmetry adapted cartesian basis functions of A   symmetry.
 There are   358 symmetry adapted basis functions of A   symmetry.
   358 basis functions,   573 primitive gaussians,   370 cartesian basis functions
    60 alpha electrons       60 beta electrons
       nuclear repulsion energy       980.5257082673 Hartrees.
 NAtoms=   22 NActive=   22 NUniq=   22 SFac= 1.00D+00 NAtFMM=   60 NAOKFM=F Big=F
 Integral buffers will be    131072 words long.
 Raffenetti 2 integral format.
 Two-electron integral symmetry is turned on.
 Force inversion solution in PCM.
 ------------------------------------------------------------------------------
 Polarizable Continuum Model (PCM)
 =================================
 Model                : PCM.
 Atomic radii         : UFF (Universal Force Field).
 Polarization charges : Total charges.
 Charge compensation  : None.
 Solution method      : Matrix inversion.
 Cavity type          : Scaled VdW (van der Waals Surface) (Alpha=1.100).
 Cavity algorithm     : GePol (No added spheres)
                        Default sphere list used, NSphG=   22.
                        Lebedev-Laikov grids with approx.  5.0 points / Ang**2.
                        Smoothing algorithm: York/Karplus (Gamma=1.0000).
                        Polarization charges: spherical gaussians, with
                                              point-specific exponents (IZeta= 3).
                        Self-potential: point-specific (ISelfS= 7).
                        Self-field    : sphere-specific E.n sum rule (ISelfD= 2).
 1st derivatives      : Analytical E(r).r(x)/FMM algorithm (CHGder, D1EAlg=3).
                        Cavity 1st derivative terms included.
 2nd derivatives      : Analytical E(r).r(xy)/FMM algorithm (CHGder, D2EAlg=3).
                        Cavity 2nd derivative terms included.
 Solvent              : DiChloroEthane, Eps=  10.125000 Eps(inf)=   2.087447
 ------------------------------------------------------------------------------
 One-electron integrals computed using PRISM.
 NBasis=   358 RedAO= T EigKep=  2.82D-06  NBF=   358
 NBsUse=   357 1.00D-06 EigRej=  3.59D-07 NBFU=   357
 ExpMin= 3.60D-02 ExpMax= 1.06D+05 ExpMxC= 3.62D+03 IAcc=3 IRadAn=         5 AccDes= 0.00D+00
 Harris functional with IExCor= 1009 and IRadAn=       5 diagonalized for initial guess.
 HarFok:  IExCor= 1009 AccDes= 0.00D+00 IRadAn=         5 IDoV= 1 UseB2=F ITyADJ=14
 ICtDFT=  3500011 ScaDFX=  1.000000  1.000000  1.000000  1.000000
 FoFCou: FMM=F IPFlag=           0 FMFlag=      100000 FMFlg1=           0
         NFxFlg=           0 DoJE=T BraDBF=F KetDBF=T FulRan=T
         wScrn=  0.000000 ICntrl=       500 IOpCl=  0 I1Cent=   200000004 NGrid=           0
         NMat0=    1 NMatS0=      1 NMatT0=    0 NMatD0=    1 NMtDS0=    0 NMtDT0=    0
 Petite list used in FoFCou.
 Requested convergence on RMS density matrix=1.00D-08 within 128 cycles.
 Requested convergence on MAX density matrix=1.00D-06.
 Requested convergence on             energy=1.00D-06.
 No special actions if energy rises.
 Inv3:  Mode=1 IEnd=    14520000.
 Iteration    1 A*A^-1 deviation from unit magnitude is 4.44D-15 for   2200.
 Iteration    1 A*A^-1 deviation from orthogonality  is 1.82D-15 for   1346   1234.
 Iteration    1 A^-1*A deviation from unit magnitude is 4.44D-15 for   2197.
 Iteration    1 A^-1*A deviation from orthogonality  is 1.81D-15 for   2187   2096.
 Error on total polarization charges =  0.01645
 SCF Done:  E(RM062X) =  -1827.66482446     A.U. after   14 cycles
            NFock= 14  Conv=0.60D-08     -V/T= 1.9989
 DoSCS=F DFT=T ScalE2(SS,OS)=  1.000000  1.000000
 Range of M.O.s used for correlation:     1   357
 NBasis=   358 NAE=    60 NBE=    60 NFC=     0 NFV=     0
 NROrb=    357 NOA=    60 NOB=    60 NVA=   297 NVB=   297

 **** Warning!!: The largest alpha MO coefficient is  0.16073056D+03

 Symmetrizing basis deriv contribution to polar:
 IMax=3 JMax=2 DiffMx= 0.00D+00
 G2DrvN: will do    23 centers at a time, making    1 passes.
 Calling FoFCou, ICntrl=  3107 FMM=F I1Cent=   0 AccDes= 0.00D+00.
 NEqPCM:  Using equilibrium solvation (IEInf=0, Eps=  10.1250, EpsInf=   2.0874)
 G2PCM: DoFxE=T DoFxN=T DoGrad=T DoDP/DQ/DG/TGxP=FFFF NFrqRd=   0 IEInf=0 SqF1=F DoCFld=F IF1Alg=4.
 End of G2Drv F.D. properties file   721 does not exist.
 End of G2Drv F.D. properties file   722 does not exist.
 End of G2Drv F.D. properties file   788 does not exist.
          IDoAtm=1111111111111111111111
 NEqPCM:  Using equilibrium solvation (IEInf=0, Eps=  10.1250, EpsInf=   2.0874)
          Differentiating once with respect to electric field.
                with respect to dipole field.
          Differentiating once with respect to nuclear coordinates.
 CalDSu exits because no D1Ps are significant.
          There are    69 degrees of freedom in the 1st order CPHF.  IDoFFX=6 NUNeed=     3.
     66 vectors produced by pass  0 Test12= 2.58D-14 1.45D-09 XBig12= 6.61D+01 3.75D+00.
 AX will form    66 AO Fock derivatives at one time.
     66 vectors produced by pass  1 Test12= 2.58D-14 1.45D-09 XBig12= 8.63D+00 5.09D-01.
     66 vectors produced by pass  2 Test12= 2.58D-14 1.45D-09 XBig12= 1.12D-01 7.26D-02.
     66 vectors produced by pass  3 Test12= 2.58D-14 1.45D-09 XBig12= 8.44D-04 6.33D-03.
     66 vectors produced by pass  4 Test12= 2.58D-14 1.45D-09 XBig12= 4.16D-06 2.52D-04.
     66 vectors produced by pass  5 Test12= 2.58D-14 1.45D-09 XBig12= 2.19D-08 2.01D-05.
     51 vectors produced by pass  6 Test12= 2.58D-14 1.45D-09 XBig12= 7.89D-11 9.37D-07.
     11 vectors produced by pass  7 Test12= 2.58D-14 1.45D-09 XBig12= 2.81D-13 7.28D-08.
      3 vectors produced by pass  8 Test12= 2.58D-14 1.45D-09 XBig12= 1.01D-15 3.24D-09.
 InvSVY:  IOpt=1 It=  1 EMax= 3.55D-15
 Solved reduced A of dimension   461 with    69 vectors.
 Isotropic polarizability for W=    0.000000      125.89 Bohr**3.
 End of Minotr F.D. properties file   721 does not exist.
 End of Minotr F.D. properties file   722 does not exist.
 End of Minotr F.D. properties file   788 does not exist.

 **********************************************************************

            Population analysis using the SCF Density.

 **********************************************************************

 Orbital symmetries:
       Occupied  (A) (A) (A) (A) (A) (A) (A) (A) (A) (A) (A) (A)
                 (A) (A) (A) (A) (A) (A) (A) (A) (A) (A) (A) (A)
                 (A) (A) (A) (A) (A) (A) (A) (A) (A) (A) (A) (A)
                 (A) (A) (A) (A) (A) (A) (A) (A) (A) (A) (A) (A)
                 (A) (A) (A) (A) (A) (A) (A) (A) (A) (A) (A) (A)
       Virtual   (A) (A) (A) (A) (A) (A) (A) (A) (A) (A) (A) (A)
                 (A) (A) (A) (A) (A) (A) (A) (A) (A) (A) (A) (A)
                 (A) (A) (A) (A) (A) (A) (A) (A) (A) (A) (A) (A)
                 (A) (A) (A) (A) (A) (A) (A) (A) (A) (A) (A) (A)
                 (A) (A) (A) (A) (A) (A) (A) (A) (A) (A) (A) (A)
                 (A) (A) (A) (A) (A) (A) (A) (A) (A) (A) (A) (A)
                 (A) (A) (A) (A) (A) (A) (A) (A) (A) (A) (A) (A)
                 (A) (A) (A) (A) (A) (A) (A) (A) (A) (A) (A) (A)
                 (A) (A) (A) (A) (A) (A) (A) (A) (A) (A) (A) (A)
                 (A) (A) (A) (A) (A) (A) (A) (A) (A) (A) (A) (A)
                 (A) (A) (A) (A) (A) (A) (A) (A) (A) (A) (A) (A)
                 (A) (A) (A) (A) (A) (A) (A) (A) (A) (A) (A) (A)
                 (A) (A) (A) (A) (A) (A) (A) (A) (A) (A) (A) (A)
                 (A) (A) (A) (A) (A) (A) (A) (A) (A) (A) (A) (A)
                 (A) (A) (A) (A) (A) (A) (A) (A) (A) (A) (A) (A)
                 (A) (A) (A) (A) (A) (A) (A) (A) (A) (A) (A) (A)
                 (A) (A) (A) (A) (A) (A) (A) (A) (A) (A) (A) (A)
                 (A) (A) (A) (A) (A) (A) (A) (A) (A) (A) (A) (A)
                 (A) (A) (A) (A) (A) (A) (A) (A) (A) (A) (A) (A)
                 (A) (A) (A) (A) (A) (A) (A) (A) (A) (A) (A) (A)
                 (A) (A) (A) (A) (A) (A) (A) (A) (A) (A) (A) (A)
                 (A) (A) (A) (A) (A) (A) (A) (A) (A) (A) (A) (A)
                 (A) (A) (A) (A) (A) (A) (A) (A) (A) (A) (A) (A)
                 (A) (A) (A) (A) (A) (A) (A) (A) (A) (A) (A) (A)
                 (A) (A) (A) (A) (A) (A) (A) (A) (A)
 The electronic state is 1-A.
 Alpha  occ. eigenvalues -- -102.65036-102.65035-102.64922 -25.26235 -19.63976
 Alpha  occ. eigenvalues --  -10.61667 -10.61657 -10.52555 -10.52552 -10.52297
 Alpha  occ. eigenvalues --  -10.52285 -10.51577  -9.81561  -9.81560  -9.81413
 Alpha  occ. eigenvalues --   -7.54279  -7.54279  -7.54132  -7.53106  -7.53106
 Alpha  occ. eigenvalues --   -7.53101  -7.53101  -7.52960  -7.52960  -1.36857
 Alpha  occ. eigenvalues --   -1.19169  -1.04170  -1.04167  -1.03812  -1.03335
 Alpha  occ. eigenvalues --   -0.89537  -0.88719  -0.75049  -0.74163  -0.72668
 Alpha  occ. eigenvalues --   -0.66871  -0.60559  -0.60288  -0.59810  -0.59549
 Alpha  occ. eigenvalues --   -0.58471  -0.58323  -0.56768  -0.54269  -0.53686
 Alpha  occ. eigenvalues --   -0.52947  -0.50808  -0.48115  -0.47584  -0.44900
 Alpha  occ. eigenvalues --   -0.43196  -0.41125  -0.41114  -0.40885  -0.40863
 Alpha  occ. eigenvalues --   -0.40685  -0.40056  -0.35108  -0.33921  -0.33083
 Alpha virt. eigenvalues --   -0.00615  -0.00217   0.00812   0.01337   0.01640
 Alpha virt. eigenvalues --    0.02363   0.02427   0.03177   0.03360   0.03952
 Alpha virt. eigenvalues --    0.04333   0.05098   0.05656   0.06674   0.06719
 Alpha virt. eigenvalues --    0.06904   0.07391   0.08924   0.09545   0.09892
 Alpha virt. eigenvalues --    0.10026   0.10599   0.10849   0.11360   0.11857
 Alpha virt. eigenvalues --    0.12106   0.12449   0.13496   0.13879   0.14029
 Alpha virt. eigenvalues --    0.14072   0.14257   0.14897   0.15074   0.15994
 Alpha virt. eigenvalues --    0.16410   0.16687   0.16819   0.17155   0.17441
 Alpha virt. eigenvalues --    0.17764   0.18436   0.18780   0.20444   0.20617
 Alpha virt. eigenvalues --    0.21186   0.21252   0.21611   0.21700   0.22700
 Alpha virt. eigenvalues --    0.23607   0.23841   0.24269   0.24614   0.25235
 Alpha virt. eigenvalues --    0.26534   0.27508   0.29022   0.29568   0.30700
 Alpha virt. eigenvalues --    0.31193   0.32003   0.32906   0.33248   0.34367
 Alpha virt. eigenvalues --    0.35292   0.35793   0.36418   0.38432   0.39590
 Alpha virt. eigenvalues --    0.39646   0.41094   0.43116   0.43666   0.44035
 Alpha virt. eigenvalues --    0.44670   0.45573   0.48582   0.50078   0.50609
 Alpha virt. eigenvalues --    0.51331   0.51465   0.51831   0.52909   0.52999
 Alpha virt. eigenvalues --    0.54296   0.55165   0.56892   0.57387   0.58566
 Alpha virt. eigenvalues --    0.59678   0.59818   0.61639   0.62008   0.62374
 Alpha virt. eigenvalues --    0.63541   0.63699   0.64764   0.65295   0.66838
 Alpha virt. eigenvalues --    0.67033   0.67925   0.68261   0.69948   0.70594
 Alpha virt. eigenvalues --    0.72483   0.72813   0.76114   0.77204   0.78140
 Alpha virt. eigenvalues --    0.78668   0.80424   0.81407   0.81619   0.81869
 Alpha virt. eigenvalues --    0.83699   0.85227   0.85647   0.85988   0.88538
 Alpha virt. eigenvalues --    0.89158   0.90419   0.90716   0.93607   0.94070
 Alpha virt. eigenvalues --    0.96904   0.97113   0.98167   0.98248   1.00259
 Alpha virt. eigenvalues --    1.00668   1.01493   1.03089   1.05927   1.06113
 Alpha virt. eigenvalues --    1.07539   1.08429   1.08498   1.11531   1.13235
 Alpha virt. eigenvalues --    1.15970   1.16038   1.17545   1.18006   1.18426
 Alpha virt. eigenvalues --    1.22200   1.22840   1.24789   1.29042   1.31329
 Alpha virt. eigenvalues --    1.33169   1.34066   1.36210   1.38775   1.39119
 Alpha virt. eigenvalues --    1.43722   1.52182   1.53613   1.53930   1.56374
 Alpha virt. eigenvalues --    1.58375   1.61865   1.62430   1.65989   1.66381
 Alpha virt. eigenvalues --    1.67551   1.68361   1.69606   1.71771   1.73350
 Alpha virt. eigenvalues --    1.74726   1.76964   1.78041   1.80740   1.81386
 Alpha virt. eigenvalues --    1.82383   1.84904   1.85654   1.86237   1.87128
 Alpha virt. eigenvalues --    1.87193   1.89011   1.91116   1.93404   1.94598
 Alpha virt. eigenvalues --    1.97320   1.99862   2.04480   2.04775   2.05874
 Alpha virt. eigenvalues --    2.06060   2.08115   2.13226   2.16140   2.16817
 Alpha virt. eigenvalues --    2.17541   2.19707   2.20506   2.21090   2.21366
 Alpha virt. eigenvalues --    2.23700   2.25394   2.29448   2.30367   2.30520
 Alpha virt. eigenvalues --    2.32768   2.34015   2.35803   2.36214   2.37563
 Alpha virt. eigenvalues --    2.38354   2.43632   2.44229   2.47298   2.49071
 Alpha virt. eigenvalues --    2.50859   2.52132   2.58622   2.64902   2.67181
 Alpha virt. eigenvalues --    2.71163   2.71833   2.75351   2.77519   2.78807
 Alpha virt. eigenvalues --    2.78960   2.79165   2.81474   2.86494   2.86505
 Alpha virt. eigenvalues --    2.89086   2.90507   2.90626   2.96579   2.98628
 Alpha virt. eigenvalues --    3.00758   3.03518   3.08837   3.12209   3.24718
 Alpha virt. eigenvalues --    3.27413   3.35357   3.40077   3.42872   3.45549
 Alpha virt. eigenvalues --    3.45575   3.50159   3.55429   3.59823   3.62099
 Alpha virt. eigenvalues --    3.64898   3.75804   3.75899   3.86863   3.89937
 Alpha virt. eigenvalues --    3.98512   4.00530   4.03985   4.09862   4.14226
 Alpha virt. eigenvalues --    4.17403   4.19295   4.26351   4.26514   4.36660
 Alpha virt. eigenvalues --    4.95193   4.95954   5.12244   5.23734   5.83803
 Alpha virt. eigenvalues --    6.54661   6.65117   6.91235  10.31239  10.31359
 Alpha virt. eigenvalues --   10.40517  23.73938  24.17980  24.26972  24.31724
 Alpha virt. eigenvalues --   24.54161  24.57362  24.72953  25.94209  25.94744
 Alpha virt. eigenvalues --   25.94917  26.02991  26.11284  26.12828  27.13684
 Alpha virt. eigenvalues --   27.13757  27.17358  50.07355  66.97078 216.52098
 Alpha virt. eigenvalues --  216.52221 216.64733
          Condensed to atoms (all electrons):
               1          2          3          4          5          6
     1  C   15.518611  -2.226507  -2.785487   0.583334  -2.791183  -2.239446
     2  C   -2.226507  16.335798   1.777224  -0.781701  -0.548618  -8.474914
     3  C   -2.785487   1.777224   8.095195   0.046866  -0.834073  -0.547648
     4  C    0.583334  -0.781701   0.046866   7.016903   0.049135  -0.779301
     5  C   -2.791183  -0.548618  -0.834073   0.049135   8.097956   1.777435
     6  C   -2.239446  -8.474914  -0.547648  -0.779301   1.777435  16.343097
     7  F    0.504810  -0.270946  -0.010038  -0.018492  -0.010327  -0.271441
     8  H   -0.305140  -0.300918  -0.158143  -0.126989   0.423850   0.312399
     9  H    0.028305   0.024107   0.484585  -0.096637  -0.093776   0.032781
    10  H    0.047644  -0.016316  -0.074464   0.494772  -0.074455  -0.016094
    11  H    0.029001   0.032913  -0.093925  -0.096481   0.483987   0.023952
    12  H   -0.308658   0.310930   0.424192  -0.127327  -0.154994  -0.299463
    13  O    0.043011  -0.016534  -0.000609  -0.002138  -0.000606  -0.016565
    14  C   -0.006438   0.001837   0.001526  -0.000373   0.001538   0.001918
    15  H    0.005814  -0.001917  -0.000910   0.000298  -0.000918  -0.001962
    16  H   -0.004232   0.001375   0.000489   0.000024   0.000495   0.001414
    17  H   -0.006165  -0.016521  -0.023332   0.045367  -0.023276  -0.017528
    18  Cl  -0.023056   0.028844   0.022881  -0.046579   0.022860   0.029657
    19  H   -0.026163   0.429311   0.014322   0.042233  -0.092621  -0.195235
    20  Cl   0.073100  -0.395953  -0.001428  -0.025237   0.049238   0.048996
    21  H   -0.023958  -0.193648  -0.092496   0.042270   0.012994   0.426940
    22  Cl   0.070700   0.047786   0.049129  -0.025098  -0.000136  -0.393674
               7          8          9         10         11         12
     1  C    0.504810  -0.305140   0.028305   0.047644   0.029001  -0.308658
     2  C   -0.270946  -0.300918   0.024107  -0.016316   0.032913   0.310930
     3  C   -0.010038  -0.158143   0.484585  -0.074464  -0.093925   0.424192
     4  C   -0.018492  -0.126989  -0.096637   0.494772  -0.096481  -0.127327
     5  C   -0.010327   0.423850  -0.093776  -0.074455   0.483987  -0.154994
     6  C   -0.271441   0.312399   0.032781  -0.016094   0.023952  -0.299463
     7  F    9.269040   0.018856  -0.002357   0.001047  -0.002346   0.018754
     8  H    0.018856   1.266158  -0.100239  -0.007067   0.010907  -0.030509
     9  H   -0.002357  -0.100239   0.499611  -0.011822  -0.002679   0.010931
    10  H    0.001047  -0.007067  -0.011822   0.491765  -0.011828  -0.007058
    11  H   -0.002346   0.010907  -0.002679  -0.011828   0.499641  -0.100393
    12  H    0.018754  -0.030509   0.010931  -0.007058  -0.100393   1.267351
    13  O    0.007275   0.001375   0.000064  -0.000013   0.000065   0.001343
    14  C    0.002198   0.003587  -0.000089   0.000011  -0.000090   0.003596
    15  H   -0.000313  -0.001163   0.000008   0.000004   0.000008  -0.001177
    16  H   -0.000267   0.000123   0.000001  -0.000003   0.000000   0.000139
    17  H    0.001574  -0.002088  -0.002029  -0.000142  -0.001990  -0.002470
    18  Cl   0.001077   0.004394   0.002101   0.000147   0.002080   0.004624
    19  H   -0.016252  -0.291243   0.015395   0.001191  -0.000845   0.003550
    20  Cl   0.014264   0.315517  -0.013608  -0.000871   0.000393   0.000584
    21  H   -0.016226   0.003463  -0.000841   0.001190   0.015445  -0.291761
    22  Cl   0.014239   0.000621   0.000392  -0.000871  -0.013619   0.315666
              13         14         15         16         17         18
     1  C    0.043011  -0.006438   0.005814  -0.004232  -0.006165  -0.023056
     2  C   -0.016534   0.001837  -0.001917   0.001375  -0.016521   0.028844
     3  C   -0.000609   0.001526  -0.000910   0.000489  -0.023332   0.022881
     4  C   -0.002138  -0.000373   0.000298   0.000024   0.045367  -0.046579
     5  C   -0.000606   0.001538  -0.000918   0.000495  -0.023276   0.022860
     6  C   -0.016565   0.001918  -0.001962   0.001414  -0.017528   0.029657
     7  F    0.007275   0.002198  -0.000313  -0.000267   0.001574   0.001077
     8  H    0.001375   0.003587  -0.001163   0.000123  -0.002088   0.004394
     9  H    0.000064  -0.000089   0.000008   0.000001  -0.002029   0.002101
    10  H   -0.000013   0.000011   0.000004  -0.000003  -0.000142   0.000147
    11  H    0.000065  -0.000090   0.000008   0.000000  -0.001990   0.002080
    12  H    0.001343   0.003596  -0.001177   0.000139  -0.002470   0.004624
    13  O    8.220916   0.253750  -0.088491  -0.091994   0.008895  -0.005758
    14  C    0.253750   4.831146   0.411916   0.415512  -0.005991  -0.001458
    15  H   -0.088491   0.411916   0.676346  -0.126122   0.000851   0.002941
    16  H   -0.091994   0.415512  -0.126122   0.676869   0.000644  -0.000714
    17  H    0.008895  -0.005991   0.000851   0.000644   0.823361   0.066468
    18  Cl  -0.005758  -0.001458   0.002941  -0.000714   0.066468  17.005562
    19  H    0.008430  -0.006642   0.002172  -0.001814   0.015163  -0.003595
    20  Cl  -0.005485   0.002456  -0.001038   0.001305  -0.005853   0.000557
    21  H    0.008411  -0.006559   0.002208  -0.001865   0.015203  -0.003602
    22  Cl  -0.005494   0.002454  -0.001057   0.001327  -0.005862   0.000554
              19         20         21         22
     1  C   -0.026163   0.073100  -0.023958   0.070700
     2  C    0.429311  -0.395953  -0.193648   0.047786
     3  C    0.014322  -0.001428  -0.092496   0.049129
     4  C    0.042233  -0.025237   0.042270  -0.025098
     5  C   -0.092621   0.049238   0.012994  -0.000136
     6  C   -0.195235   0.048996   0.426940  -0.393674
     7  F   -0.016252   0.014264  -0.016226   0.014239
     8  H   -0.291243   0.315517   0.003463   0.000621
     9  H    0.015395  -0.013608  -0.000841   0.000392
    10  H    0.001191  -0.000871   0.001190  -0.000871
    11  H   -0.000845   0.000393   0.015445  -0.013619
    12  H    0.003550   0.000584  -0.291761   0.315666
    13  O    0.008430  -0.005485   0.008411  -0.005494
    14  C   -0.006642   0.002456  -0.006559   0.002454
    15  H    0.002172  -0.001038   0.002208  -0.001057
    16  H   -0.001814   0.001305  -0.001865   0.001327
    17  H    0.015163  -0.005853   0.015203  -0.005862
    18  Cl  -0.003595   0.000557  -0.003602   0.000554
    19  H    1.074277  -0.102766   0.003264  -0.002415
    20  Cl  -0.102766  17.147438  -0.002396   0.002521
    21  H    0.003264  -0.002396   1.074987  -0.103285
    22  Cl  -0.002415   0.002521  -0.103285  17.147869
 Mulliken charges:
               1
     1  C   -0.157896
     2  C    0.254370
     3  C   -0.293856
     4  C   -0.194851
     5  C   -0.294505
     6  C    0.254684
     7  F   -0.234129
     8  H   -0.037750
     9  H    0.225798
    10  H    0.183233
    11  H    0.225802
    12  H   -0.037851
    13  O   -0.319847
    14  C    0.094194
    15  H    0.122502
    16  H    0.127294
    17  H    0.135722
    18  Cl  -0.109983
    19  H    0.130284
    20  Cl  -0.101732
    21  H    0.130264
    22  Cl  -0.101745
 Sum of Mulliken charges =  -0.00000
 Mulliken charges with hydrogens summed into heavy atoms:
               1
     1  C   -0.157896
     2  C    0.216620
     3  C   -0.068058
     4  C   -0.011618
     5  C   -0.068704
     6  C    0.216833
     7  F   -0.234129
    13  O   -0.319847
    14  C    0.343990
    18  Cl   0.025739
    20  Cl   0.028552
    22  Cl   0.028519
 APT charges:
               1
     1  C    0.729749
     2  C   -0.180932
     3  C   -0.002545
     4  C   -0.073582
     5  C   -0.002530
     6  C   -0.181047
     7  F   -0.722218
     8  H    0.115238
     9  H    0.065234
    10  H    0.059053
    11  H    0.065233
    12  H    0.115257
    13  O   -0.714442
    14  C    0.696659
    15  H    0.003203
    16  H    0.002531
    17  H    0.261511
    18  Cl  -0.249165
    19  H    0.251326
    20  Cl  -0.244980
    21  H    0.251359
    22  Cl  -0.244912
 Sum of APT charges =   0.00000
 APT charges with hydrogens summed into heavy atoms:
               1
     1  C    0.729749
     2  C   -0.065695
     3  C    0.062689
     4  C   -0.014529
     5  C    0.062703
     6  C   -0.065789
     7  F   -0.722218
    13  O   -0.714442
    14  C    0.702393
    18  Cl   0.012346
    20  Cl   0.006346
    22  Cl   0.006447
 Electronic spatial extent (au):  <R**2>=           4146.2899
 Charge=             -0.0000 electrons
 Dipole moment (field-independent basis, Debye):
    X=              0.8746    Y=             -0.0066    Z=             -0.0891  Tot=              0.8792
 Quadrupole moment (field-independent basis, Debye-Ang):
   XX=            -59.1143   YY=            -92.4420   ZZ=           -100.7019
   XY=              0.0124   XZ=              0.1138   YZ=             -0.0002
 Traceless Quadrupole moment (field-independent basis, Debye-Ang):
   XX=             24.9718   YY=             -8.3560   ZZ=            -16.6158
   XY=              0.0124   XZ=              0.1138   YZ=             -0.0002
 Octapole moment (field-independent basis, Debye-Ang**2):
  XXX=            120.6397  YYY=             -0.0593  ZZZ=             -7.2855  XYY=             -8.2386
  XXY=              0.0163  XXZ=             -0.1103  XZZ=             13.9044  YZZ=              0.0109
  YYZ=              6.2699  XYZ=             -0.0121
 Hexadecapole moment (field-independent basis, Debye-Ang**3):
 XXXX=          -1729.3862 YYYY=          -1479.5415 ZZZZ=          -1304.4153 XXXY=              0.1598
 XXXZ=              0.3261 YYYX=              0.0410 YYYZ=              0.0664 ZZZX=             -8.6077
 ZZZY=             -0.0247 XXYY=           -649.7404 XXZZ=           -664.3849 YYZZ=           -473.2955
 XXYZ=             -0.0358 YYXZ=              9.5345 ZZXY=             -0.0512
 N-N= 9.805257082673D+02 E-N=-6.295971708899D+03  KE= 1.829758781327D+03
  Exact polarizability: 151.405   0.005 128.159  -1.028  -0.003  98.110
 Approx polarizability: 145.635  -0.005 127.971  -0.380  -0.001  96.566
 D2PCM: PCM CHGder 2nd derivatives, FixD1E=F FixD2E=F DoIter=F DoCFld=F I1PDM=0
 Calling FoFJK, ICntrl=    100127 FMM=F ISym2X=0 I1Cent= 0 IOpClX= 0 NMat=1 NMatS=1 NMatT=0.
 ***** Axes restored to original set *****
 -------------------------------------------------------------------
 Center     Atomic                   Forces (Hartrees/Bohr)
 Number     Number              X              Y              Z
 -------------------------------------------------------------------
      1        6          -0.082421550    0.000117124   -0.047582739
      2        6          -0.052982806    0.001865981    0.015060625
      3        6           0.002761060    0.000054674    0.037221336
      4        6           0.039095369   -0.000356207    0.022571610
      5        6           0.033620348    0.000054687   -0.016211927
      6        6          -0.013439783    0.001865339   -0.053416533
      7        9           0.020085391    0.000036722    0.011597054
      8        1          -0.060989332    0.002718776    0.036347994
      9        1          -0.001801788    0.000140838    0.073763243
     10        1           0.064281121   -0.000012662    0.037113374
     11        1           0.062978886    0.000140830   -0.038443894
     12        1           0.000982400    0.002717622   -0.070992146
     13        8           0.016790178   -0.000083294    0.009687098
     14        6           0.060789432   -0.000005517    0.035425809
     15        1          -0.039087136    0.071485761   -0.022731105
     16        1          -0.039090790   -0.071464481   -0.022733290
     17        1          -0.116658895   -0.759353755   -0.067359810
     18       17           0.116253792    0.758410056    0.067125171
     19        1           0.211647831    0.378798920   -0.636327114
     20       17          -0.218206131   -0.382966435    0.634803828
     21        1          -0.445308059    0.378795093    0.501399888
     22       17           0.440700466   -0.382960073   -0.506318472
 -------------------------------------------------------------------
 Cartesian Forces:  Max     0.759353755 RMS     0.234697179
 -----------------------------------------------------------------------------------------------
                       Internal Coordinate Forces (Hartree/Bohr or radian)
  Cent   Atom   N1       Length/X         N2         Alpha/Y        N3         Beta/Z          J
 -----------------------------------------------------------------------------------------------
      1  C 
      2  C        1   0.043668(     1)
      3  C        2   0.159683(     2)      1   0.183989(    22)
      4  C        3   0.222085(     3)      2   0.434291(    23)      1   0.015329(    42)     0
      5  C        4   0.178410(     4)      3   0.452678(    24)      2   0.020168(    43)     0
      6  C        5   0.072338(     5)      4   0.245043(    25)      3   0.010002(    44)     0
      7  F        1  -0.009140(     6)      2   0.000102(    26)      3   0.004820(    45)     0
      8  H        2   0.070992(     7)      3  -0.001859(    27)      4   0.004449(    46)     0
      9  H        3   0.073763(     8)      4   0.003405(    28)      5   0.000230(    47)     0
     10  H        4   0.074226(     9)      5   0.000001(    29)      6  -0.000021(    48)     0
     11  H        5   0.073763(    10)      6  -0.003409(    30)      1   0.000230(    49)     0
     12  H        6   0.070992(    11)      1   0.001856(    31)      2   0.004448(    50)     0
     13  O        7   0.000694(    12)      1  -0.000023(    32)      3   0.000001(    51)     0
     14  C       13   0.020078(    13)      1   0.000104(    33)      2  -0.000000(    52)     0
     15  H       14   0.084517(    14)      1   0.006454(    34)      2   0.000118(    53)     0
     16  H       14   0.084500(    15)      1   0.006481(    35)      2  -0.000118(    54)     0
     17  H        7  -0.000848(    16)      1   0.001857(    36)      2  -0.000006(    55)     0
     18  Cl      17   0.770199(    17)      7  -0.000860(    37)      1  -0.000003(    56)     0
     19  H        7   0.004842(    18)      1   0.034673(    38)      2  -0.014987(    57)     0
     20  Cl      19   0.772796(    19)      7   0.009956(    39)      1  -0.001297(    58)     0
     21  H        7   0.004839(    20)      1   0.034590(    40)      2   0.014998(    59)     0
     22  Cl      21   0.772784(    21)      7   0.009833(    41)      1   0.001300(    60)     0
 -----------------------------------------------------------------------------------------------
 Internal  Forces:  Max     0.772796138 RMS     0.201415391

 GradGradGradGradGradGradGradGradGradGradGradGradGradGradGradGradGradGrad
 Berny optimization.
 Search for a local minimum.
 Step number   1 out of a maximum of   29
 All quantities printed in internal units (Hartrees-Bohrs-Radians)
 Second derivative matrix not updated -- analytic derivatives used.
 The second derivative matrix:
                          d1        d2        d3        d4        d5
           d1           0.89890
           d2          -0.01686   1.02077
           d3          -0.36206   0.41432   1.58141
           d4          -0.16334   0.01127   0.40004   1.00919
           d5           0.04201  -0.19329  -0.37910  -0.00121   0.97048
           d6           0.05634   0.05767   0.02849  -0.02784  -0.05499
           d7           0.00047   0.00189  -0.00082   0.00223   0.00212
           d8          -0.00052   0.00419   0.00479  -0.00019  -0.00039
           d9          -0.00089  -0.00091   0.00418   0.00507   0.00086
           d10          0.00315   0.00223  -0.00071   0.00164   0.00157
           d11         -0.01803  -0.01544   0.00270   0.01721   0.01944
           d12          0.00055   0.00066   0.00039  -0.00016  -0.00044
           d13         -0.00005  -0.00007  -0.00005  -0.00001   0.00002
           d14          0.00005   0.00006   0.00004  -0.00001  -0.00004
           d15          0.00005   0.00006   0.00004  -0.00001  -0.00004
           d16         -0.00061  -0.00077  -0.00038   0.00023   0.00044
           d17          0.00006   0.00008   0.00002  -0.00004  -0.00004
           d18          0.00942   0.00938   0.00064  -0.00878  -0.00945
           d19          0.00553   0.00580   0.00075  -0.00477  -0.00525
                          d6        d7        d8        d9        d10
           d6           0.33083
           d7          -0.00667   0.57821
           d8           0.00097   0.00028   0.57445
           d9           0.00038   0.00011   0.00044   0.57406
           d10          0.00097   0.00009   0.00020   0.00044   0.57446
           d11         -0.00667  -0.00002   0.00009   0.00011   0.00028
           d12         -0.00116  -0.00002   0.00003   0.00002   0.00003
           d13          0.00035   0.00001  -0.00001  -0.00001  -0.00001
           d14         -0.00015  -0.00000   0.00000   0.00000   0.00000
           d15         -0.00015  -0.00000   0.00000   0.00000   0.00000
           d16          0.00226   0.00008  -0.00004  -0.00002  -0.00004
           d17         -0.00081   0.00002   0.00001   0.00001   0.00001
           d18          0.02381  -0.00543  -0.00002   0.00007  -0.00002
           d19          0.00856  -0.00279   0.00005   0.00009   0.00005
                          d11       d12       d13       d14       d15
           d11          0.57822
           d12         -0.00002   0.00362
           d13          0.00001   0.00053   0.95729
           d14         -0.00000   0.00010   0.03185   0.57469
           d15         -0.00000   0.00009   0.03181   0.00156   0.57473
           d16          0.00008  -0.00054  -0.00006  -0.00002  -0.00001
           d17          0.00002   0.00001  -0.00012   0.00002   0.00002
           d18         -0.00544  -0.00098   0.00001  -0.00005  -0.00006
           d19         -0.00279  -0.00015  -0.00021   0.00003   0.00003
                          d16       d17       d18       d19
           d16          0.00407
           d17          0.00232   2.45720
           d18          0.00013  -0.00014   0.02541
           d19         -0.00014   0.00000   0.01286   4.93974
 ITU=  0
     Eigenvalues ---    0.00323   0.00439   0.02339   0.31789   0.57103
     Eigenvalues ---    0.57315   0.57355   0.57409   0.57472   0.57590
     Eigenvalues ---    0.57803   0.58310   0.77056   0.81388   0.96254
     Eigenvalues ---    1.14083   2.19043   2.45720   4.93982
 RFO step:  Lambda=-4.23535996D-01 EMin= 3.22991989D-03
 Linear search not attempted -- first point.
 Maximum step size (   0.300) exceeded in Quadratic search.
    -- Step size scaled by   0.716
 Variable       Old X    -DE/DX   Delta X   Delta X   Delta X     New X
                                 (Linear)    (Quad)   (Total)
    d1        2.45664   0.04367   0.00000   0.05194   0.05194   2.50859
    d2        2.45664   0.15968   0.00000   0.06736   0.06736   2.52401
    d3        2.45664   0.22209   0.00000   0.07194   0.07194   2.52858
    d4        2.45664   0.17841   0.00000   0.07369   0.07369   2.53033
    d5        2.45664   0.07234   0.00000   0.06360   0.06360   2.52024
    d6        2.64562  -0.00914   0.00000  -0.01349  -0.01349   2.63213
    d7        1.88973   0.07099   0.00000   0.05053   0.05053   1.94026
    d8        1.88973   0.07376   0.00000   0.05229   0.05229   1.94201
    d9        1.88973   0.07423   0.00000   0.05256   0.05256   1.94229
   d10        1.88973   0.07376   0.00000   0.05236   0.05236   1.94209
   d11        1.88973   0.07099   0.00000   0.05020   0.05020   1.93993
   d12        5.29123   0.00069   0.00000   0.00098   0.00098   5.29222
   d13        2.26767   0.02008   0.00000   0.00767   0.00767   2.27534
   d14        1.88973   0.08452   0.00000   0.06024   0.06024   1.94996
   d15        1.88973   0.08450   0.00000   0.06022   0.06022   1.94995
   d16        4.34637  -0.00085   0.00000  -0.00220  -0.00220   4.34417
   d17        1.70075   0.77020   0.00000   0.19133   0.19133   1.89209
   d18        4.34637   0.00484   0.00000   0.00695   0.00695   4.35332
   d19        1.70075   0.77280   0.00000   0.10317   0.10317   1.80392
         Item               Value     Threshold  Converged?
 Maximum Force            0.772796     0.002500     NO 
 RMS     Force            0.266110     0.001667     NO 
 Maximum Displacement     0.191333     0.010000     NO 
 RMS     Displacement     0.068825     0.006667     NO 
 Predicted change in Energy=-2.137048D-01
 GradGradGradGradGradGradGradGradGradGradGradGradGradGradGradGradGradGrad

 ---------------------------------------------------------------------------------------------------
                            Z-MATRIX (ANGSTROMS AND DEGREES)
   CD    Cent   Atom    N1       Length/X        N2       Alpha/Y        N3        Beta/Z          J
 ---------------------------------------------------------------------------------------------------
      1      1  C 
      2      2  C        1   1.327488(     1)
      3      3  C        2   1.335647(     2)      1  120.000(    22)
      4      4  C        3   1.338068(     3)      2  120.000(    23)      1    0.000(    42)      0
      5      5  C        4   1.338993(     4)      3  120.000(    24)      2    0.000(    43)      0
      6      6  C        5   1.333656(     5)      4  120.000(    25)      3    0.000(    44)      0
      7      7  F        1   1.392862(     6)      2  120.000(    26)      3  180.000(    45)      0
      8      8  H        2   1.026742(     7)      3  120.000(    27)      4  180.000(    46)      0
      9      9  H        3   1.027669(     8)      4  120.000(    28)      5  180.000(    47)      0
     10     10  H        4   1.027814(     9)      5  120.000(    29)      6  180.000(    48)      0
     11     11  H        5   1.027710(    10)      6  120.000(    30)      1  180.000(    49)      0
     12     12  H        6   1.026567(    11)      1  120.000(    31)      2  180.000(    50)      0
     13     13  O        7   2.800520(    12)      1  179.900(    32)      3  180.000(    51)      0
     14     14  C       13   1.204060(    13)      1  179.900(    33)      2  180.000(    52)      0
     15     15  H       14   1.031876(    14)      1  120.000(    34)      2   90.000(    53)      0
     16     16  H       14   1.031869(    15)      1  120.000(    35)      2  -90.000(    54)      0
     17     17  H        7   2.298836(    16)      1  100.000(    36)      2   90.000(    55)      0
     18     18  Cl      17   1.001249(    17)      7  160.000(    37)      1    0.000(    56)      0
     19     19  H        7   2.303679(    18)      1  100.000(    38)      2  -30.000(    57)      0
     20     20  Cl      19   0.954593(    19)      7  160.000(    39)      1    0.000(    58)      0
     21     21  H        7   2.303679(    20)      1  100.000(    40)      2 -150.000(    59)      0
     22     22  Cl      21   0.954593(    21)      7  160.000(    41)      1    0.000(    60)      0
 ---------------------------------------------------------------------------------------------------
                         Z-Matrix orientation:                         
 ---------------------------------------------------------------------
 Center     Atomic      Atomic             Coordinates (Angstroms)
 Number     Number       Type             X           Y           Z
 ---------------------------------------------------------------------
      1          6           0        0.000000    0.000000    0.000000
      2          6           0        0.000000    0.000000    1.327488
      3          6           0        1.156704    0.000000    1.995311
      4          6           0        2.315505    0.000000    1.326277
      5          6           0        2.315505    0.000000   -0.012716
      6          6           0        1.160525    0.000000   -0.679544
      7          9           0       -1.206254   -0.000000   -0.696431
      8          1           0       -0.889184   -0.000000    1.840859
      9          1           0        1.156704   -0.000000    3.022980
     10          1           0        3.205618   -0.000000    1.840184
     11          1           0        3.205528   -0.000000   -0.526571
     12          1           0        1.154236   -0.000000   -1.706091
     13          8           0       -3.629128   -0.000000   -2.100922
     14          6           0       -4.670118   -0.000000   -2.705985
     15          1           0       -5.116531    0.893631   -2.964648
     16          1           0       -5.116529   -0.893625   -2.964647
     17          1           0       -1.551962    2.263911   -0.896025
     18         17           0       -1.401390    3.249949   -0.809093
     19          1           0       -2.535058   -1.134341    0.805065
     20         17           0       -2.798574   -1.604386    1.593014
     21          1           0       -0.570322   -1.134341   -2.597957
     22         17           0       -0.019696   -1.604386   -3.220143
 ---------------------------------------------------------------------
                    Distance matrix (angstroms):
                    1          2          3          4          5
     1  C    0.000000
     2  C    1.327488   0.000000
     3  C    2.306346   1.335647   0.000000
     4  C    2.668441   2.315505   1.338068   0.000000
     5  C    2.315540   2.675390   2.318403   1.338993   0.000000
     6  C    1.344842   2.318403   2.674858   2.314583   1.333656
     7  F    1.392862   2.356119   3.581766   4.061297   3.587514
     8  H    2.044360   1.026742   2.051711   3.245740   3.702131
     9  H    3.236723   2.052477   1.027669   2.054658   3.249349
    10  H    3.696250   3.246359   2.054778   1.027814   2.055612
    11  H    3.248490   3.703099   3.249241   2.055526   1.027710
    12  H    2.059856   3.245745   3.701403   3.247122   2.053306
    13  O    4.193381   4.992451   6.299470   6.861804   6.300736
    14  C    5.397440   6.170810   7.486925   8.065858   7.486830
    15  H    5.980519   6.737945   8.046941   8.628197   8.046592
    16  H    5.980515   6.737941   8.046937   8.628193   8.046588
    17  H    2.887342   3.532406   4.563112   5.002122   4.567585
    18  Cl   3.630523   4.134131   4.997069   5.379339   5.001169
    19  H    2.891604   2.825982   4.041352   5.008628   5.048114
    20  Cl   3.597744   3.236753   4.287204   5.366470   5.595197
    21  H    2.891604   4.125665   5.036612   5.001434   4.037103
    22  Cl   3.597744   4.822384   5.582019   5.356973   4.279580
                    6          7          8          9         10
     6  C    0.000000
     7  F    2.366840   0.000000
     8  H    3.248652   2.557024   0.000000
     9  H    3.702526   4.406540   2.362853   0.000000
    10  H    3.245217   5.089109   4.094802   2.365809   0.000000
    11  H    2.050716   4.415051   4.729841   4.098414   2.366755
    12  H    1.026567   2.567358   4.093461   4.729072   4.096857
    13  O    4.996108   2.800520   4.800513   7.011317   7.889618
    14  C    6.172752   4.004580   5.913480   8.171469   9.093672
    15  H    6.739564   4.607999   6.462348   8.718014   9.651071
    16  H    6.739560   4.607995   6.462344   8.718010   9.651067
    17  H    3.539738   2.298836   3.613185   5.274540   5.936893
    18  Cl   4.140334   3.257751   4.224543   5.638333   6.229395
    19  H    4.141030   2.303679   2.251332   4.453648   5.942521
    20  Cl   4.838702   3.217312   2.506242   4.501453   6.219764
    21  H    2.821856   2.303679   4.592547   5.988680   5.936459
    22  Cl   3.228254   3.217312   5.379944   6.552447   6.211571
                   11         12         13         14         15
    11  H    0.000000
    12  H    2.366235   0.000000
    13  O    7.013637   4.799632   0.000000
    14  C    8.171637   5.909559   1.204060   0.000000
    15  H    8.717768   6.457946   1.938290   1.031876   0.000000
    16  H    8.717764   6.457942   1.938284   1.031869   1.787256
    17  H    5.281619   3.620084   3.300256   4.257246   4.343159
    18  Cl   5.644970   4.230603   4.146542   4.984471   4.899075
    19  H    6.001192   4.604728   3.305825   4.262943   4.998741
    20  Cl   6.566272   5.392852   4.112060   4.955616   5.690809
    21  H    4.453584   2.248612   3.300010   4.255200   4.991508
    22  Cl   4.497939   2.498904   4.105449   4.946194   5.681822
                   16         17         18         19         20
    16  H    0.000000
    17  H    5.191856   0.000000
    18  Cl   5.968071   1.001249   0.000000
    19  H    4.575223   3.925341   4.807567   0.000000
    20  Cl   5.162400   4.765824   5.593461   0.954593   0.000000
    21  H    4.567318   3.925341   4.807567   3.929471   4.769726
    22  Cl   5.152491   4.765824   5.593461   4.769726   5.557755
                   21         22
    21  H    0.000000
    22  Cl   0.954593   0.000000
 Stoichiometry    C7H10Cl3FO
 Framework group  C1[X(C7H10Cl3FO)]
 Deg. of freedom    60
 Full point group                 C1      NOp   1
 Largest Abelian subgroup         C1      NOp   1
 Largest concise Abelian subgroup C1      NOp   1
                         Standard orientation:                         
 ---------------------------------------------------------------------
 Center     Atomic      Atomic             Coordinates (Angstroms)
 Number     Number       Type             X           Y           Z
 ---------------------------------------------------------------------
      1          6           0       -1.012571    0.005568   -0.006055
      2          6           0       -1.674121    1.156470   -0.006296
      3          6           0       -3.009766    1.159017   -0.006640
      4          6           0       -3.681008    0.001494   -0.006741
      5          6           0       -3.013724   -1.159383   -0.006498
      6          6           0       -1.680071   -1.161926   -0.006154
      7          9           0        0.380289    0.002912   -0.005696
      8          1           0       -1.159056    2.044673   -0.006219
      9          1           0       -3.521902    2.049982   -0.006827
     10          1           0       -4.708820    0.003454   -0.007006
     11          1           0       -3.529276   -2.048425   -0.006575
     12          1           0       -1.163041   -2.048785   -0.005966
     13          8           0        3.180790   -0.007316   -0.004975
     14          6           0        4.384836   -0.013117   -0.004664
     15          1           0        4.900541   -0.014848    0.889099
     16          1           0        4.900998   -0.014959   -0.898156
     17          1           0        0.778894    0.002291    2.258318
     18         17           0        0.604775    0.002684    3.244311
     19          1           0        0.784356    1.966811   -1.140055
     20         17           0        0.620267    2.781238   -1.610192
     21          1           0        0.776863   -1.962653   -1.139813
     22         17           0        0.609668   -2.776507   -1.609851
 ---------------------------------------------------------------------
 Rotational constants (GHZ):           0.4254063           0.3252817           0.3111563
 Standard basis: 6-311++G(d,p) (5D, 7F)
 There are   370 symmetry adapted cartesian basis functions of A   symmetry.
 There are   358 symmetry adapted basis functions of A   symmetry.
   358 basis functions,   573 primitive gaussians,   370 cartesian basis functions
    60 alpha electrons       60 beta electrons
       nuclear repulsion energy       962.7463168340 Hartrees.
 NAtoms=   22 NActive=   22 NUniq=   22 SFac= 1.00D+00 NAtFMM=   60 NAOKFM=F Big=F
 Integral buffers will be    131072 words long.
 Raffenetti 2 integral format.
 Two-electron integral symmetry is turned on.
 Force inversion solution in PCM.
 ------------------------------------------------------------------------------
 Polarizable Continuum Model (PCM)
 =================================
 Model                : PCM.
 Atomic radii         : UFF (Universal Force Field).
 Polarization charges : Total charges.
 Charge compensation  : None.
 Solution method      : Matrix inversion.
 Cavity type          : Scaled VdW (van der Waals Surface) (Alpha=1.100).
 Cavity algorithm     : GePol (No added spheres)
                        Default sphere list used, NSphG=   22.
                        Lebedev-Laikov grids with approx.  5.0 points / Ang**2.
                        Smoothing algorithm: York/Karplus (Gamma=1.0000).
                        Polarization charges: spherical gaussians, with
                                              point-specific exponents (IZeta= 3).
                        Self-potential: point-specific (ISelfS= 7).
                        Self-field    : sphere-specific E.n sum rule (ISelfD= 2).
 1st derivatives      : Analytical E(r).r(x)/FMM algorithm (CHGder, D1EAlg=3).
                        Cavity 1st derivative terms included.
 Solvent              : DiChloroEthane, Eps=  10.125000 Eps(inf)=   2.087447
 ------------------------------------------------------------------------------
 One-electron integrals computed using PRISM.
 NBasis=   358 RedAO= T EigKep=  3.68D-06  NBF=   358
 NBsUse=   357 1.00D-06 EigRej=  4.67D-07 NBFU=   357
 Initial guess from the checkpoint file:  "/home/lywu/software/g16/scr/Gau-5937.chk"
 B after Tr=     0.000000   -0.000000   -0.000000
         Rot=    0.999999    0.000030    0.000686    0.001381 Ang=   0.18 deg.
 ExpMin= 3.60D-02 ExpMax= 1.06D+05 ExpMxC= 3.62D+03 IAcc=3 IRadAn=         5 AccDes= 0.00D+00
 Harris functional with IExCor= 1009 and IRadAn=       5 diagonalized for initial guess.
 HarFok:  IExCor= 1009 AccDes= 0.00D+00 IRadAn=         5 IDoV= 1 UseB2=F ITyADJ=14
 ICtDFT=  3500011 ScaDFX=  1.000000  1.000000  1.000000  1.000000
 FoFCou: FMM=F IPFlag=           0 FMFlag=      100000 FMFlg1=           0
         NFxFlg=           0 DoJE=T BraDBF=F KetDBF=T FulRan=T
         wScrn=  0.000000 ICntrl=       500 IOpCl=  0 I1Cent=   200000004 NGrid=           0
         NMat0=    1 NMatS0=      1 NMatT0=    0 NMatD0=    1 NMtDS0=    0 NMtDT0=    0
 Petite list used in FoFCou.
 Requested convergence on RMS density matrix=1.00D-08 within 128 cycles.
 Requested convergence on MAX density matrix=1.00D-06.
 Requested convergence on             energy=1.00D-06.
 No special actions if energy rises.
 Inv3:  Mode=1 IEnd=    15201003.
 Iteration    1 A*A^-1 deviation from unit magnitude is 6.22D-15 for   2238.
 Iteration    1 A*A^-1 deviation from orthogonality  is 2.52D-15 for   2234   2202.
 Iteration    1 A^-1*A deviation from unit magnitude is 5.77D-15 for   2238.
 Iteration    1 A^-1*A deviation from orthogonality  is 2.56D-15 for   2248   2130.
 Error on total polarization charges =  0.01712
 SCF Done:  E(RM062X) =  -1827.96868396     A.U. after   13 cycles
            NFock= 13  Conv=0.44D-08     -V/T= 2.0001
 DoSCS=F DFT=T ScalE2(SS,OS)=  1.000000  1.000000
 Range of M.O.s used for correlation:     1   357
 NBasis=   358 NAE=    60 NBE=    60 NFC=     0 NFV=     0
 NROrb=    357 NOA=    60 NOB=    60 NVA=   297 NVB=   297

 **** Warning!!: The largest alpha MO coefficient is  0.14571493D+03

 Symmetrizing basis deriv contribution to polar:
 IMax=3 JMax=2 DiffMx= 0.00D+00
 D1PCM: PCM CHGder 1st derivatives, ID1Alg=3 FixD1E=F DoIter=F DoCFld=F I1PDM=0.
 Calling FoFJK, ICntrl=      2127 FMM=F ISym2X=0 I1Cent= 0 IOpClX= 0 NMat=1 NMatS=1 NMatT=0.
 ***** Axes restored to original set *****
 -------------------------------------------------------------------
 Center     Atomic                   Forces (Hartrees/Bohr)
 Number     Number              X              Y              Z
 -------------------------------------------------------------------
      1        6          -0.034354123    0.000102808   -0.037276959
      2        6          -0.030175239    0.001846882    0.011403645
      3        6           0.007378946    0.000052060    0.012842665
      4        6           0.015289821   -0.000346581    0.010215753
      5        6           0.014078596    0.000060089   -0.001932026
      6        6          -0.019186933    0.001916323   -0.022653188
      7        9           0.018957392    0.000215183    0.010999774
      8        1          -0.037197866    0.002685581    0.022707933
      9        1          -0.001554214    0.000131388    0.045231513
     10        1           0.039423573   -0.000012209    0.022769914
     11        1           0.038448095    0.000137871   -0.023943449
     12        1           0.000807673    0.002755973   -0.043416969
     13        8           0.007338555   -0.000051254    0.004184294
     14        6           0.043211783    0.000002105    0.025250024
     15        1          -0.025530158    0.043488688   -0.014872748
     16        1          -0.025534553   -0.043473458   -0.014875046
     17        1          -0.061801585   -0.400135760   -0.035690956
     18       17           0.061422295    0.398852106    0.035467777
     19        1           0.150717776    0.270170027   -0.454430404
     20       17          -0.157008081   -0.274214316    0.452748259
     21        1          -0.318195167    0.270130252    0.357747737
     22       17           0.313463416   -0.274313760   -0.362477542
 -------------------------------------------------------------------
 Cartesian Forces:  Max     0.454430404 RMS     0.154099062
 -----------------------------------------------------------------------------------------------
                       Internal Coordinate Forces (Hartree/Bohr or radian)
  Cent   Atom   N1       Length/X         N2         Alpha/Y        N3         Beta/Z          J
 -----------------------------------------------------------------------------------------------
      1  C 
      2  C        1   0.033933(     1)
      3  C        2   0.082269(     2)      1   0.070403(    22)
      4  C        3   0.106441(     3)      2   0.192879(    23)      1   0.016213(    42)     0
      5  C        4   0.091238(     4)      3   0.204554(    24)      2   0.021062(    43)     0
      6  C        5   0.048240(     5)      4   0.117087(    25)      3   0.010413(    44)     0
      7  F        1  -0.008124(     6)      2  -0.000786(    26)      3   0.005539(    45)     0
      8  H        2   0.043568(     7)      3  -0.002070(    27)      4   0.004513(    46)     0
      9  H        3   0.045232(     8)      4   0.003018(    28)      5   0.000221(    47)     0
     10  H        4   0.045527(     9)      5   0.000015(    29)      6  -0.000021(    48)     0
     11  H        5   0.045269(    10)      6  -0.002936(    30)      1   0.000232(    49)     0
     12  H        6   0.043411(    11)      1   0.002083(    31)      2   0.004630(    50)     0
     13  O        7   0.000602(    12)      1  -0.000072(    32)      3   0.000000(    51)     0
     14  C       13   0.009050(    13)      1   0.000101(    33)      2  -0.000000(    52)     0
     15  H       14   0.052435(    14)      1   0.007495(    34)      2   0.000117(    53)     0
     16  H       14   0.052425(    15)      1   0.007518(    35)      2  -0.000116(    54)     0
     17  H        7  -0.001188(    16)      1   0.001735(    36)      2   0.000007(    55)     0
     18  Cl      17   0.405109(    17)      7  -0.001116(    37)      1  -0.000003(    56)     0
     19  H        7   0.004523(    18)      1   0.034339(    38)      2  -0.015267(    57)     0
     20  Cl      19   0.552078(    19)      7   0.010013(    39)      1  -0.001344(    58)     0
     21  H        7   0.004658(    20)      1   0.035342(    40)      2   0.015802(    59)     0
     22  Cl      21   0.552141(    21)      7   0.010349(    41)      1   0.001382(    60)     0
 -----------------------------------------------------------------------------------------------
 Internal  Forces:  Max     0.552140737 RMS     0.123906419

 GradGradGradGradGradGradGradGradGradGradGradGradGradGradGradGradGradGrad
 Berny optimization.
 Search for a local minimum.
 Step number   2 out of a maximum of   29
 All quantities printed in internal units (Hartrees-Bohrs-Radians)
 Update second derivatives using D2CorN and points    1    2
 DE= -3.04D-01 DEPred=-2.14D-01 R= 1.42D+00
 TightC=F SS=  1.41D+00  RLast= 3.00D-01 DXNew= 5.0454D-01 9.0000D-01
 Trust test= 1.42D+00 RLast= 3.00D-01 DXMaxT set to 5.05D-01
 The second derivative matrix:
                          d1        d2        d3        d4        d5
           d1           0.89918
           d2          -0.01908   1.01454
           d3          -0.36557   0.40619   1.57116
           d4          -0.16583   0.00438   0.39108   1.00157
           d5           0.04197  -0.19651  -0.38393  -0.00480   0.96996
           d6           0.05625   0.05823   0.02938  -0.02722  -0.05500
           d7           0.00003  -0.00119  -0.00521  -0.00120   0.00121
           d8          -0.00099   0.00098   0.00022  -0.00376  -0.00135
           d9          -0.00137  -0.00416  -0.00042   0.00147  -0.00011
           d10          0.00268  -0.00099  -0.00529  -0.00193   0.00061
           d11         -0.01846  -0.01850  -0.00166   0.01381   0.01854
           d12          0.00055   0.00062   0.00032  -0.00021  -0.00044
           d13         -0.00005  -0.00046  -0.00063  -0.00044  -0.00004
           d14         -0.00062  -0.00381  -0.00541  -0.00431  -0.00131
           d15         -0.00062  -0.00381  -0.00541  -0.00431  -0.00131
           d16         -0.00061  -0.00067  -0.00021   0.00035   0.00045
           d17         -0.02975  -0.04810  -0.05560  -0.05293  -0.03795
           d18          0.00938   0.00899   0.00006  -0.00922  -0.00955
           d19         -0.07749  -0.10700  -0.12196  -0.12826  -0.10766
                          d6        d7        d8        d9        d10
           d6           0.33086
           d7          -0.00657   0.57710
           d8           0.00107  -0.00089   0.57322
           d9           0.00048  -0.00108  -0.00081   0.57280
           d10          0.00107  -0.00108  -0.00102  -0.00081   0.57323
           d11         -0.00658  -0.00113  -0.00107  -0.00107  -0.00088
           d12         -0.00116  -0.00003   0.00003   0.00001   0.00003
           d13          0.00035  -0.00010  -0.00013  -0.00013  -0.00013
           d14          0.00000  -0.00148  -0.00154  -0.00156  -0.00155
           d15          0.00000  -0.00148  -0.00154  -0.00156  -0.00154
           d16          0.00226   0.00011  -0.00001   0.00001  -0.00001
           d17          0.00687  -0.03158  -0.03275  -0.03296  -0.03280
           d18          0.02382  -0.00556  -0.00016  -0.00007  -0.00017
           d19          0.03008  -0.08496  -0.08501  -0.08544  -0.08514
                          d11       d12       d13       d14       d15
           d11          0.57713
           d12         -0.00003   0.00362
           d13         -0.00010   0.00053   0.95728
           d14         -0.00146   0.00008   0.03169   0.57276
           d15         -0.00146   0.00008   0.03166  -0.00037   0.57279
           d16          0.00011  -0.00054  -0.00005   0.00002   0.00003
           d17         -0.03137  -0.00055  -0.00469  -0.03821  -0.03820
           d18         -0.00557  -0.00098  -0.00000  -0.00023  -0.00024
           d19         -0.08442  -0.00172  -0.01257  -0.09822  -0.09820
                          d16       d17       d18       d19
           d16          0.00407
           d17          0.00362   2.23383
           d18          0.00013  -0.00441   0.02540
           d19          0.00340  -0.36703   0.00160   4.60888
 ITU=  1  0
     Eigenvalues ---    0.00323   0.00438   0.02337   0.31744   0.53957
     Eigenvalues ---    0.57286   0.57315   0.57359   0.57409   0.57532
     Eigenvalues ---    0.57730   0.58292   0.76947   0.78795   0.96216
     Eigenvalues ---    1.13924   2.11605   2.25619   4.69110
 RFO step:  Lambda=-5.38483762D-02 EMin= 3.22971687D-03
 Quartic linear search produced a step of  0.28702.
 Variable       Old X    -DE/DX   Delta X   Delta X   Delta X     New X
                                 (Linear)    (Quad)   (Total)
    d1        2.50859   0.03393   0.01491  -0.06865  -0.05374   2.45485
    d2        2.52401   0.08227   0.01933  -0.04118  -0.02185   2.50216
    d3        2.52858   0.10644   0.02065  -0.03377  -0.01313   2.51546
    d4        2.53033   0.09124   0.02115  -0.03861  -0.01746   2.51287
    d5        2.52024   0.04824   0.01825  -0.06713  -0.04888   2.47137
    d6        2.63213  -0.00812  -0.00387   0.04146   0.03759   2.66972
    d7        1.94026   0.04357   0.01450  -0.06336  -0.04885   1.89141
    d8        1.94201   0.04523   0.01501  -0.06566  -0.05066   1.89136
    d9        1.94229   0.04553   0.01509  -0.06587  -0.05078   1.89150
   d10        1.94209   0.04527   0.01503  -0.06547  -0.05044   1.89165
   d11        1.93993   0.04341   0.01441  -0.06308  -0.04867   1.89125
   d12        5.29222   0.00060   0.00028  -0.01497  -0.01469   5.27753
   d13        2.27534   0.00905   0.00220  -0.00081   0.00140   2.27674
   d14        1.94996   0.05244   0.01729  -0.07518  -0.05789   1.89207
   d15        1.94995   0.05242   0.01729  -0.07516  -0.05788   1.89207
   d16        4.34417  -0.00119  -0.00063   0.03257   0.03194   4.37611
   d17        1.89209   0.40511   0.05492  -0.00311   0.05181   1.94389
   d18        4.35332   0.00452   0.00200  -0.10507  -0.10307   4.25025
   d19        1.80392   0.55208   0.02961   0.05497   0.08458   1.88850
         Item               Value     Threshold  Converged?
 Maximum Force            0.552078     0.002500     NO 
 RMS     Force            0.164545     0.001667     NO 
 Maximum Displacement     0.103074     0.010000     NO 
 RMS     Displacement     0.050518     0.006667     NO 
 Predicted change in Energy=-9.705993D-03
 GradGradGradGradGradGradGradGradGradGradGradGradGradGradGradGradGradGrad

 ---------------------------------------------------------------------------------------------------
                            Z-MATRIX (ANGSTROMS AND DEGREES)
[...]
     1  C   10.333894  -1.084559  -1.382554   0.264631  -1.250148  -0.940113
     2  C   -1.084559  11.025197   0.754651  -0.715233   0.015493  -3.858630
     3  C   -1.382554   0.754651   6.611834   0.335561  -0.405950  -0.087957
     4  C    0.264631  -0.715233   0.335561   6.316602   0.325350  -0.617304
     5  C   -1.250148   0.015493  -0.405950   0.325350   6.518545   0.636803
     6  C   -0.940113  -3.858630  -0.087957  -0.617304   0.636803  11.015440
     7  F    0.382860  -0.206593  -0.019304   0.001830  -0.016238  -0.201240
     8  H   -0.296924  -0.156603   0.114644   0.049419   0.185536   0.120099
     9  H    0.040666   0.053499   0.374704  -0.100164  -0.041474   0.017447
    10  H    0.034088  -0.008470  -0.060387   0.434294  -0.056226  -0.006128
    11  H    0.041582   0.019937  -0.043013  -0.098484   0.378431   0.045875
    12  H   -0.290618   0.116278   0.196467   0.045135   0.094481  -0.161781
    13  O    0.031263  -0.011078  -0.000222  -0.000751  -0.000071  -0.010490
    14  C   -0.010524   0.002987   0.001362   0.000045   0.001366   0.003759
    15  H    0.002726  -0.001037  -0.000357   0.000056  -0.000355  -0.001181
    16  H   -0.002458   0.000835   0.000194   0.000033   0.000189   0.000867
    17  H    0.060674  -0.019602  -0.029592   0.026881  -0.029489  -0.022324
    18  Cl   0.029233  -0.001025   0.011864  -0.024286   0.012906  -0.000382
    19  H    0.028539   0.162540  -0.037308  -0.001210  -0.024846  -0.053946
    20  Cl   0.024306  -0.225889   0.047700   0.003626   0.012804   0.016450
    21  H    0.026699  -0.054853  -0.027399  -0.000206  -0.035050   0.168694
    22  Cl   0.027957   0.017872   0.013814   0.003267   0.043581  -0.232769
               7          8          9         10         11         12
     1  C    0.382860  -0.296924   0.040666   0.034088   0.041582  -0.290618
     2  C   -0.206593  -0.156603   0.053499  -0.008470   0.019937   0.116278
     3  C   -0.019304   0.114644   0.374704  -0.060387  -0.043013   0.196467
     4  C    0.001830   0.049419  -0.100164   0.434294  -0.098484   0.045135
     5  C   -0.016238   0.185536  -0.041474  -0.056226   0.378431   0.094481
     6  C   -0.201240   0.120099   0.017447  -0.006128   0.045875  -0.161781
     7  F    9.227499  -0.001006  -0.000952   0.000935  -0.000961  -0.001491
     8  H   -0.001006   1.013809  -0.054197  -0.003893   0.004708  -0.026462
     9  H   -0.000952  -0.054197   0.458756  -0.006386  -0.000013   0.005008
    10  H    0.000935  -0.003893  -0.006386   0.466269  -0.006049  -0.004198
    11  H   -0.000961   0.004708  -0.000013  -0.006049   0.458451  -0.054687
    12  H   -0.001491  -0.026462   0.005008  -0.004198  -0.054687   1.037379
    13  O    0.007607   0.000511   0.000040   0.000001   0.000040   0.000456
    14  C    0.001789   0.001936  -0.000050   0.000008  -0.000055   0.002148
    15  H   -0.000190  -0.000229  -0.000001   0.000000  -0.000001  -0.000229
    16  H   -0.000272  -0.000143   0.000002  -0.000001   0.000002  -0.000151
    17  H   -0.006864  -0.009027  -0.000181  -0.000212  -0.000064  -0.010158
    18  Cl  -0.004912   0.006099   0.000666   0.000196   0.000629   0.006515
    19  H   -0.011530  -0.135698   0.005772   0.000629  -0.000606   0.008833
    20  Cl  -0.000672   0.169794  -0.005906  -0.000413   0.000164  -0.002329
    21  H   -0.011506   0.009040  -0.000690   0.000665   0.005914  -0.142147
    22  Cl  -0.000633  -0.002390   0.000184  -0.000421  -0.005972   0.175726
              13         14         15         16         17         18
     1  C    0.031263  -0.010524   0.002726  -0.002458   0.060674   0.029233
     2  C   -0.011078   0.002987  -0.001037   0.000835  -0.019602  -0.001025
     3  C   -0.000222   0.001362  -0.000357   0.000194  -0.029592   0.011864
     4  C   -0.000751   0.000045   0.000056   0.000033   0.026881  -0.024286
     5  C   -0.000071   0.001366  -0.000355   0.000189  -0.029489   0.012906
     6  C   -0.010490   0.003759  -0.001181   0.000867  -0.022324  -0.000382
     7  F    0.007607   0.001789  -0.000190  -0.000272  -0.006864  -0.004912
     8  H    0.000511   0.001936  -0.000229  -0.000143  -0.009027   0.006099
     9  H    0.000040  -0.000050  -0.000001   0.000002  -0.000181   0.000666
    10  H    0.000001   0.000008   0.000000  -0.000001  -0.000212   0.000196
    11  H    0.000040  -0.000055  -0.000001   0.000002  -0.000064   0.000629
    12  H    0.000456   0.002148  -0.000229  -0.000151  -0.010158   0.006515
    13  O    8.204520   0.223476  -0.086081  -0.090597   0.009786  -0.004283
    14  C    0.223476   4.947897   0.401311   0.404346  -0.007207  -0.001150
    15  H   -0.086081   0.401311   0.648381  -0.098952   0.001658   0.001265
    16  H   -0.090597   0.404346  -0.098952   0.648856  -0.000027  -0.000112
    17  H    0.009786  -0.007207   0.001658  -0.000027   0.638063   0.252511
    18  Cl  -0.004283  -0.001150   0.001265  -0.000112   0.252511  16.835461
    19  H    0.005398  -0.001846   0.000208  -0.000116   0.005105  -0.001450
    20  Cl  -0.002218   0.000248  -0.000101  -0.000056  -0.001359  -0.000260
    21  H    0.005512  -0.002027   0.000211  -0.000125   0.005523  -0.001570
    22  Cl  -0.002259   0.000297  -0.000103  -0.000057  -0.001483  -0.000234
              19         20         21         22
     1  C    0.028539   0.024306   0.026699   0.027957
     2  C    0.162540  -0.225889  -0.054853   0.017872
     3  C   -0.037308   0.047700  -0.027399   0.013814
     4  C   -0.001210   0.003626  -0.000206   0.003267
     5  C   -0.024846   0.012804  -0.035050   0.043581
     6  C   -0.053946   0.016450   0.168694  -0.232769
     7  F   -0.011530  -0.000672  -0.011506  -0.000633
     8  H   -0.135698   0.169794   0.009040  -0.002390
     9  H    0.005772  -0.005906  -0.000690   0.000184
    10  H    0.000629  -0.000413   0.000665  -0.000421
    11  H   -0.000606   0.000164   0.005914  -0.005972
    12  H    0.008833  -0.002329  -0.142147   0.175726
    13  O    0.005398  -0.002218   0.005512  -0.002259
    14  C   -0.001846   0.000248  -0.002027   0.000297
    15  H    0.000208  -0.000101   0.000211  -0.000103
    16  H   -0.000116  -0.000056  -0.000125  -0.000057
    17  H    0.005105  -0.001359   0.005523  -0.001483
    18  Cl  -0.001450  -0.000260  -0.001570  -0.000234
    19  H    0.658268   0.257878  -0.009235   0.002574
    20  Cl   0.257878  16.811350   0.002584  -0.000511
    21  H   -0.009235   0.002584   0.662247   0.256437
    22  Cl   0.002574  -0.000511   0.256437  16.811217
 Mulliken charges:
               1
     1  C   -0.071223
     2  C    0.174281
     3  C   -0.368752
     4  C   -0.249091
     5  C   -0.365638
     6  C    0.168812
     7  F   -0.138156
     8  H    0.010976
     9  H    0.253269
    10  H    0.215699
    11  H    0.254171
    12  H    0.005825
    13  O   -0.280560
    14  C    0.029885
    15  H    0.133001
    16  H    0.137743
    17  H    0.137388
    18  Cl  -0.117680
    19  H    0.142050
    20  Cl  -0.107189
    21  H    0.141282
    22  Cl  -0.106092
 Sum of Mulliken charges =  -0.00000
 Mulliken charges with hydrogens summed into heavy atoms:
               1
     1  C   -0.071223
     2  C    0.185257
     3  C   -0.115483
     4  C   -0.033393
     5  C   -0.111467
     6  C    0.174638
     7  F   -0.138156
    13  O   -0.280560
    14  C    0.300629
    18  Cl   0.019708
    20  Cl   0.034860
    22  Cl   0.035190
 APT charges:
               1
     1  C    0.724713
     2  C   -0.166682
     3  C    0.002890
     4  C   -0.091250
     5  C    0.001197
     6  C   -0.166017
     7  F   -0.775791
     8  H    0.101617
     9  H    0.074021
    10  H    0.065925
    11  H    0.074353
    12  H    0.105302
    13  O   -0.761783
    14  C    0.782709
    15  H   -0.017181
    16  H   -0.018235
    17  H    0.361176
    18  Cl  -0.318195
    19  H    0.300108
    20  Cl  -0.289381
    21  H    0.300288
    22  Cl  -0.289785
 Sum of APT charges =   0.00000
 APT charges with hydrogens summed into heavy atoms:
               1
     1  C    0.724713
     2  C   -0.065065
     3  C    0.076911
     4  C   -0.025325
     5  C    0.075551
     6  C   -0.060715
     7  F   -0.775791
    13  O   -0.761783
    14  C    0.747294
    18  Cl   0.042981
    20  Cl   0.010728
    22  Cl   0.010503
 Electronic spatial extent (au):  <R**2>=           4910.6768
 Charge=             -0.0000 electrons
 Dipole moment (field-independent basis, Debye):
    X=              1.2394    Y=              0.0001    Z=             -0.2391  Tot=              1.2623
 Quadrupole moment (field-independent basis, Debye-Ang):
   XX=            -59.8909   YY=            -99.1946   ZZ=           -108.2900
   XY=             -0.1665   XZ=              2.3366   YZ=              0.0042
 Traceless Quadrupole moment (field-independent basis, Debye-Ang):
   XX=             29.2343   YY=            -10.0694   ZZ=            -19.1648
   XY=             -0.1665   XZ=              2.3366   YZ=              0.0042
 Octapole moment (field-independent basis, Debye-Ang**2):
  XXX=            116.6844  YYY=             -0.0769  ZZZ=            -12.4466  XYY=            -14.7800
  XXY=             -0.1001  XXZ=              6.5631  XZZ=             17.5851  YZZ=              0.0339
  YYZ=             17.0085  XYZ=             -0.0066
 Hexadecapole moment (field-independent basis, Debye-Ang**3):
 XXXX=          -1808.5472 YYYY=          -2194.4821 ZZZZ=          -1632.7547 XXXY=             -2.4930
 XXXZ=             58.7880 YYYX=             -0.6381 YYYZ=              0.2853 ZZZX=             -8.0440
 ZZZY=              0.0403 XXYY=           -783.2667 XXZZ=           -745.5033 YYZZ=           -649.8310
 XXYZ=             -0.0406 YYXZ=             20.0271 ZZXY=             -0.3072
 N-N= 9.003925603719D+02 E-N=-6.131752239459D+03  KE= 1.823837696147D+03
  Exact polarizability: 166.642  -0.245 154.853   2.569   0.034 116.589
 Approx polarizability: 162.530  -0.272 153.930   2.159   0.012 112.843
 Rotating derivatives to standard orientation.
 ***** Axes restored to original set *****
 -------------------------------------------------------------------
 Center     Atomic                   Forces (Hartrees/Bohr)
 Number     Number              X              Y              Z
 -------------------------------------------------------------------
      1        6           0.015282811   -0.001344727   -0.000597035
      2        6          -0.015880208    0.000535615    0.003567719
      3        6           0.005155019   -0.000026957    0.000403972
      4        6           0.004062689   -0.000078998   -0.003237220
      5        6          -0.006076219   -0.000020049    0.002125774
      6        6          -0.000499902    0.000580284   -0.001406198
      7        9           0.004003691   -0.000654498    0.003842227
      8        1          -0.000285042    0.001097897   -0.000464824
      9        1          -0.001346099    0.000015440   -0.000000046
     10        1           0.000152087    0.000018489   -0.000263780
     11        1          -0.000693883    0.000016898   -0.001201730
     12        1           0.000733055    0.001240363   -0.000030382
     13        8          -0.000115704    0.000264937   -0.000143772
     14        6           0.007295188    0.000091592    0.004438975
     15        1          -0.003657725   -0.002461821   -0.002192076
     16        1          -0.003674542    0.002472681   -0.002201802
     17        1          -0.001483812   -0.000153980   -0.000857283
     18       17           0.000345868   -0.000065573    0.000197443
     19        1          -0.000645626   -0.000533390   -0.001066973
     20       17          -0.000613121   -0.000134719   -0.000409789
     21        1          -0.001341917   -0.000631366   -0.000079933
     22       17          -0.000716608   -0.000228120   -0.000423264
 -------------------------------------------------------------------
 Cartesian Forces:  Max     0.015880208 RMS     0.003410126
 -----------------------------------------------------------------------------------------------
                       Internal Coordinate Forces (Hartree/Bohr or radian)
  Cent   Atom   N1       Length/X         N2         Alpha/Y        N3         Beta/Z          J
 -----------------------------------------------------------------------------------------------
      1  C 
      2  C        1  -0.000017(     1)
      3  C        2  -0.000017(     2)      1  -0.033236(    22)
      4  C        3   0.000006(     3)      2  -0.024955(    23)      1   0.006135(    42)     0
      5  C        4   0.000022(     4)      3  -0.017049(    24)      2   0.008221(    43)     0
      6  C        5   0.000016(     5)      4   0.000022(    25)      3   0.004116(    44)     0
      7  F        1  -0.000029(     6)      2  -0.004235(    26)      3   0.002970(    45)     0
      8  H        2   0.000014(     7)      3   0.001115(    27)      4   0.001946(    46)     0
      9  H        3  -0.000000(     8)      4   0.002754(    28)      5   0.000027(    47)     0
     10  H        4  -0.000000(     9)      5  -0.000623(    29)      6   0.000033(    48)     0
     11  H        5  -0.000000(    10)      6  -0.002839(    30)      1   0.000030(    49)     0
     12  H        6   0.000018(    11)      1   0.001500(    31)      2   0.002197(    50)     0
     13  O        7   0.000182(    12)      1  -0.000047(    32)      3  -0.000004(    51)     0
     14  C       13   0.000009(    13)      1   0.000102(    33)      2  -0.000000(    52)     0
     15  H       14  -0.000000(    14)      1   0.010243(    34)      2   0.000113(    53)     0
     16  H       14   0.000000(    15)      1   0.010290(    35)      2  -0.000113(    54)     0
     17  H        7   0.000012(    16)      1   0.004185(    36)      2   0.000014(    55)     0
     18  Cl      17   0.000005(    17)      7  -0.000982(    37)      1   0.000002(    56)     0
     19  H        7   0.000093(    18)      1   0.010859(    38)      2  -0.004730(    57)     0
     20  Cl      19  -0.000103(    19)      7   0.001771(    39)      1  -0.000117(    58)     0
     21  H        7   0.000270(    20)      1   0.012008(    40)      2   0.005526(    59)     0
     22  Cl      21  -0.000025(    21)      7   0.002042(    41)      1   0.000161(    60)     0
 -----------------------------------------------------------------------------------------------
 Internal  Forces:  Max     0.033236046 RMS     0.006766247

 ----------------------------------------------------------------------

 Electric dipole moment (input orientation):
 (Debye = 10**-18 statcoulomb cm , SI units = C m)
                  (au)            (Debye)         (10**-30 SI)
   Tot        0.496619D+00      0.126228D+01      0.421051D+01
   x         -0.418111D+00     -0.106273D+01     -0.354490D+01
   y         -0.117596D+00     -0.298900D+00     -0.997022D+00
   z         -0.240800D+00     -0.612051D+00     -0.204158D+01

 Dipole polarizability, Alpha (input orientation).
 (esu units = cm**3 , SI units = C**2 m**2 J**-1)
 Alpha(0;0):
               (au)            (10**-24 esu)      (10**-40 SI)
   iso        0.146028D+03      0.216392D+02      0.240768D+02
   aniso      0.455433D+02      0.674882D+01      0.750907D+01
   xx         0.152108D+03      0.225401D+02      0.250793D+02
   yx        -0.430943D+01     -0.638592D+00     -0.710530D+00
   yy         0.157535D+03      0.233443D+02      0.259740D+02
   zx         0.206693D+02      0.306287D+01      0.340790D+01
   zy        -0.250339D+01     -0.370964D+00     -0.412753D+00
   zz         0.128441D+03      0.190330D+02      0.211771D+02

 ----------------------------------------------------------------------

 Dipole orientation:
     6          0.00000000          0.00000000         -0.00000000
     6         -2.19538527          0.61746443         -1.26437023
     6         -2.11256321          1.23133962         -3.80588376
     6          0.17807046          1.22577055         -5.08202744
     6          2.39631298          0.60187739         -3.80449322
     6          2.31270506         -0.01782251         -1.23886470
     9         -0.08154903         -0.60443947          2.50244857
     1         -3.98309192          0.62181076         -0.26841416
     1         -3.83496665          1.71577525         -4.79785345
     1          0.24286466          1.70602358         -7.07032995
     1          4.18339109          0.59753259         -4.80009913
     1          4.01567330         -0.50665752         -0.21799799
     8         -0.24472607         -1.88506521          7.79894205
     6         -0.31017531         -2.42005637         10.01005078
     1         -0.58339780         -4.39812459         10.59406580
     1         -0.09958663         -0.93067076         11.44735657
     1         -0.61517605         -4.43414100          2.25257803
    17         -0.92348122         -6.64047354          1.27477792
     1         -3.95369905          2.11511226          3.91577529
    17         -5.83163302          3.65078188          3.79135046
     1          4.38924864          0.95318617          3.90700201
    17          6.61506577          1.91732451          3.77826174

 Electric dipole moment (dipole orientation):
 (Debye = 10**-18 statcoulomb cm , SI units = C m)
                  (au)            (Debye)         (10**-30 SI)
   Tot        0.496619D+00      0.126228D+01      0.421051D+01
   x          0.000000D+00      0.000000D+00      0.000000D+00
   y          0.000000D+00      0.000000D+00      0.000000D+00
   z          0.496619D+00      0.126228D+01      0.421051D+01

 Dipole polarizability, Alpha (dipole orientation).
 (esu units = cm**3 , SI units = C**2 m**2 J**-1)
 Alpha(0;0):
               (au)            (10**-24 esu)      (10**-40 SI)
   iso        0.146028D+03      0.216392D+02      0.240768D+02
   aniso      0.455433D+02      0.674882D+01      0.750907D+01
   xx         0.117280D+03      0.173790D+02      0.193368D+02
   yx         0.593742D+01      0.879835D+00      0.978948D+00
   yy         0.159375D+03      0.236169D+02      0.262773D+02
   zx        -0.691913D+00     -0.102531D+00     -0.114081D+00
   zy        -0.589413D+01     -0.873421D+00     -0.971811D+00
   zz         0.161431D+03      0.239216D+02      0.266163D+02

 ----------------------------------------------------------------------
 1\1\GINC-LOCALHOST\POpt\RM062X\6-311++G(d,p)\C7H10Cl3F1O1\LYWU\06-Jan-
 2025\1\\# m062x 6-311++G(d,p) opt=(z-matrix,recalc=5,loose) scrf=(solv
 ent=dichloroethane)\\test\\0,1\C\C,1,d1\C,2,d2,1,120.\C,3,d3,2,120.,1,
 0.,0\C,4,d4,3,120.,2,0.,0\C,5,d5,4,120.,3,0.,0\F,1,d6,2,120.,3,180.,0\
 H,2,d7,3,120.,4,180.,0\H,3,d8,4,120.,5,180.,0\H,4,d9,5,120.,6,180.,0\H
 ,5,d10,6,120.,1,180.,0\H,6,d11,1,120.,2,180.,0\O,7,d12,1,179.9,3,180.,
 0\C,13,d13,1,179.9,2,180.,0\H,14,d14,1,120.,2,90.,0\H,14,d15,1,120.,2,
 -90.,0\H,7,d16,1,100.,2,90.,0\Cl,17,d17,7,160.,1,0.,0\H,7,d18,1,100.,2
 ,-30.,0\Cl,19,d19,7,160.,1,0.,0\H,7,d18,1,100.,2,-150.,0\Cl,21,d19,7,1
 60.,1,0.,0\\d1=1.37988586\d2=1.38428078\d3=1.3875725\d4=1.39425253\d5=
 1.39741544\d6=1.36300335\d7=1.08291981\d8=1.0825982\d9=1.08296451\d10=
 1.08253907\d11=1.08206445\d12=2.88483966\d13=1.20432885\d14=1.1009529\
 d15=1.10095125\d16=2.05043755\d17=1.28744024\d18=2.61324616\d19=1.2854
 1041\\Version=ES64L-G16RevB.01\State=1-A\HF=-1828.3400176\RMSD=4.069e-
 09\RMSF=3.410e-03\Dipole=-0.4181115,-0.1175962,-0.2407995\Polar=152.10
 83244,-4.3094337,157.5351512,20.6692755,-2.5033888,128.4412581\Quadrup
 ole=14.4111766,-14.3322653,-0.0789113,0.0080667,12.7365741,0.0137456\P
 G=C01 [X(C7H10Cl3F1O1)]\\@


 LOGIC IS A SYSTEMATIC METHOD OF COMING TO THE
 WRONG CONCLUSION WITH CONFIDENCE.
 Job cpu time:       0 days 11 hours 24 minutes 51.3 seconds.
 Elapsed time:       0 days  2 hours 51 minutes 36.5 seconds.
 File lengths (MBytes):  RWF=    428 Int=      0 D2E=      0 Chk=     17 Scr=      1
 Normal termination of Gaussian 16 at Mon Jan  6 21:34:22 2025.
