 Entering Gaussian System, Link 0=g16
 Input=model_H1.gjf
 Output=model_H1.log
 Initial command:
 /home/zjxu/prog/g16/l1.exe "/home/zjxu/zjhan/5_model/HBr/water/Gau-54803.inp" -scrdir="/home/zjxu/zjhan/5_model/HBr/water/"
 Entering Link 1 = /home/zjxu/prog/g16/l1.exe PID=     54804.
  
 Copyright (c) 1988-2017, Gaussian, Inc.  All Rights Reserved.
  
 This is part of the Gaussian(R) 16 program.  It is based on
 the Gaussian(R) 09 system (copyright 2009, Gaussian, Inc.),
 the Gaussian(R) 03 system (copyright 2003, Gaussian, Inc.),
 the Gaussian(R) 98 system (copyright 1998, Gaussian, Inc.),
 the Gaussian(R) 94 system (copyright 1995, Gaussian, Inc.),
 the Gaussian 92(TM) system (copyright 1992, Gaussian, Inc.),
 the Gaussian 90(TM) system (copyright 1990, Gaussian, Inc.),
 the Gaussian 88(TM) system (copyright 1988, Gaussian, Inc.),
 the Gaussian 86(TM) system (copyright 1986, Carnegie Mellon
 University), and the Gaussian 82(TM) system (copyright 1983,
 Carnegie Mellon University). Gaussian is a federally registered
 trademark of Gaussian, Inc.
  
 This software contains proprietary and confidential information,
 including trade secrets, belonging to Gaussian, Inc.
  
 This software is provided under written license and may be
 used, copied, transmitted, or stored only in accord with that
 written license.
  
 The following legend is applicable only to US Government
 contracts under FAR:
  
                    RESTRICTED RIGHTS LEGEND
  
 Use, reproduction and disclosure by the US Government is
 subject to restrictions as set forth in subparagraphs (a)
 and (c) of the Commercial Computer Software - Restricted
 Rights clause in FAR 52.227-19.
  
 Gaussian, Inc.
 340 Quinnipiac St., Bldg. 40, Wallingford CT 06492
  
  
 ---------------------------------------------------------------
 Warning -- This program may not be used in any manner that
 competes with the business of Gaussian, Inc. or will provide
 assistance to any competitor of Gaussian, Inc.  The licensee
 of this program is prohibited from giving any competitor of
 Gaussian, Inc. access to this program.  By using this program,
 the user acknowledges that Gaussian, Inc. is engaged in the
 business of creating and licensing software in the field of
 computational chemistry and represents and warrants to the
 licensee that it is not a competitor of Gaussian, Inc. and that
 it will not use this program in any manner prohibited above.
 ---------------------------------------------------------------
  

 Cite this work as:
 Gaussian 16, Revision B.01,
 M. J. Frisch, G. W. Trucks, H. B. Schlegel, G. E. Scuseria, 
 M. A. Robb, J. R. Cheeseman, G. Scalmani, V. Barone, 
 G. A. Petersson, H. Nakatsuji, X. Li, M. Caricato, A. V. Marenich, 
 J. Bloino, B. G. Janesko, R. Gomperts, B. Mennucci, H. P. Hratchian, 
 J. V. Ortiz, A. F. Izmaylov, J. L. Sonnenberg, D. Williams-Young, 
 F. Ding, F. Lipparini, F. Egidi, J. Goings, B. Peng, A. Petrone, 
 T. Henderson, D. Ranasinghe, V. G. Zakrzewski, J. Gao, N. Rega, 
 G. Zheng, W. Liang, M. Hada, M. Ehara, K. Toyota, R. Fukuda, 
 J. Hasegawa, M. Ishida, T. Nakajima, Y. Honda, O. Kitao, H. Nakai, 
 T. Vreven, K. Throssell, J. A. Montgomery, Jr., J. E. Peralta, 
 F. Ogliaro, M. J. Bearpark, J. J. Heyd, E. N. Brothers, K. N. Kudin, 
 V. N. Staroverov, T. A. Keith, R. Kobayashi, J. Normand, 
 K. Raghavachari, A. P. Rendell, J. C. Burant, S. S. Iyengar, 
 J. Tomasi, M. Cossi, J. M. Millam, M. Klene, C. Adamo, R. Cammi, 
 J. W. Ochterski, R. L. Martin, K. Morokuma, O. Farkas, 
 J. B. Foresman, and D. J. Fox, Gaussian, Inc., Wallingford CT, 2016.
 
 ******************************************
 Gaussian 16:  ES64L-G16RevB.01 20-Dec-2017
                 1-Apr-2024 
 ******************************************
 %mem=4GB
 %nproc=4
 Will use up to    4 processors via shared memory.
 %chk=model_H1
 ------------------------------------------------------------------
 # m062x 6-311++G(d,p) opt=(z-matrix,recalc=5) scrf=(solvent=water)
 ------------------------------------------------------------------
 1/10=7,18=40,26=3,38=1,71=5/1,3;
 2/12=2,17=6,18=5,29=3,40=1/2;
 3/5=4,6=6,7=1111,11=2,25=1,30=1,70=2201,71=2,72=1,74=-55,140=1/1,2,3;
 4//1;
 5/5=2,38=5,53=1/2;
 8/6=4,10=90,11=11/1;
 11/6=1,8=1,9=11,15=111,16=1/1,2,10;
 10/6=1/2;
 6/7=2,8=2,9=2,10=2,28=1/1;
 7/10=1,25=1/1,2,3,16;
 1/10=7,18=40,26=3,71=5/3(3);
 2/29=3/2;
 7/9=1,25=1,44=-1/16;
 99//99;
 2/29=3/2;
 3/5=4,6=6,7=1111,11=2,25=1,30=1,70=2205,71=2,72=1,74=-55,140=1/1,2,3;
 4/5=5,16=3,69=1/1;
 5/5=2,38=5,53=1/2;
 8/6=4,10=90,11=11/1;
 11/6=1,8=1,9=11,15=111,16=1/1,2,10;
 10/6=1/2;
 7/10=1,25=1/1,2,3,16;
 1/18=40,26=3,71=5/3(-8);
 2/29=3/2;
 6/7=2,8=2,9=2,10=2,19=2,28=1/1;
 7/9=1,25=1,44=-1/16;
 99/9=1/99;
 ----
 test
 ----
 Symbolic Z-matrix:
 Charge =  0 Multiplicity = 1
 C1
 C2                   1    d1
 C3                   2    d2       1     120. 
 C4                   3    d3       2     120.     1     0.       0
 C5                   4    d4       3     120.     2     0.       0
 C6                   5    d5       4     120.     3     0.       0
 F7                   1    d6       2     120.     3     180.     0
 H8                   2    d7       3     120.     4     180.     0
 H9                   3    d8       4     120.     5     180.     0
 H10                  4    d9       5     120.     6     180.     0
 H11                  5    d10      6     120.     1     180.     0
 H12                  6    d11      1     120.     2     180.     0
 O13                  7    d12      1     179.9    3     180.     0
 C14                  13   d13      1     179.9    2     180.     0
 H15                  14   d14      1     120.     2     90.      0
 H16                  14   d15      1     120.     2    -90.      0
 H17                  7    d16      1     100.     2     90.      0
 Br18                 17   d17      7     160.     1     0.       0
       Variables:
  d1                    1.3                      
  d2                    1.3                      
  d3                    1.3                      
  d4                    1.3                      
  d5                    1.3                      
  d6                    1.4                      
  d7                    1.                       
  d8                    1.                       
  d9                    1.                       
  d10                   1.                       
  d11                   1.                       
  d12                   2.8                      
  d13                   1.2                      
  d14                   1.                       
  d15                   1.                       
  d16                   2.3                      
  d17                   0.9                      
 

 GradGradGradGradGradGradGradGradGradGradGradGradGradGradGradGradGradGrad
 Berny optimization.
 Initialization pass.
                       ----------------------------
                       !    Initial Parameters    !
                       ! (Angstroms and Degrees)  !
 ----------------------                            ----------------------
 !      Name          Value   Derivative information (Atomic Units)     !
 ------------------------------------------------------------------------
 !       d1          1.3      calculate D2E/DX2 analytically            !
 !       d2          1.3      calculate D2E/DX2 analytically            !
 !       d3          1.3      calculate D2E/DX2 analytically            !
 !       d4          1.3      calculate D2E/DX2 analytically            !
 !       d5          1.3      calculate D2E/DX2 analytically            !
 !       d6          1.4      calculate D2E/DX2 analytically            !
 !       d7          1.0      calculate D2E/DX2 analytically            !
 !       d8          1.0      calculate D2E/DX2 analytically            !
 !       d9          1.0      calculate D2E/DX2 analytically            !
 !       d10         1.0      calculate D2E/DX2 analytically            !
 !       d11         1.0      calculate D2E/DX2 analytically            !
 !       d12         2.8      calculate D2E/DX2 analytically            !
 !       d13         1.2      calculate D2E/DX2 analytically            !
 !       d14         1.0      calculate D2E/DX2 analytically            !
 !       d15         1.0      calculate D2E/DX2 analytically            !
 !       d16         2.3      calculate D2E/DX2 analytically            !
 !       d17         0.9      calculate D2E/DX2 analytically            !
 ------------------------------------------------------------------------
 Trust Radius=3.00D-01 FncErr=1.00D-07 GrdErr=1.00D-06 EigMax=2.50D+02 EigMin=1.00D-04
 Number of steps in this run=     27 maximum allowed number of steps=    100.
 GradGradGradGradGradGradGradGradGradGradGradGradGradGradGradGradGradGrad

 ---------------------------------------------------------------------------------------------------
                            Z-MATRIX (ANGSTROMS AND DEGREES)
   CD    Cent   Atom    N1       Length/X        N2       Alpha/Y        N3        Beta/Z          J
 ---------------------------------------------------------------------------------------------------
      1      1  C 
      2      2  C        1   1.300000(     1)
      3      3  C        2   1.300000(     2)      1  120.000(    18)
      4      4  C        3   1.300000(     3)      2  120.000(    19)      1    0.000(    34)      0
      5      5  C        4   1.300000(     4)      3  120.000(    20)      2    0.000(    35)      0
      6      6  C        5   1.300000(     5)      4  120.000(    21)      3    0.000(    36)      0
      7      7  F        1   1.400000(     6)      2  120.000(    22)      3  180.000(    37)      0
      8      8  H        2   1.000000(     7)      3  120.000(    23)      4  180.000(    38)      0
      9      9  H        3   1.000000(     8)      4  120.000(    24)      5  180.000(    39)      0
     10     10  H        4   1.000000(     9)      5  120.000(    25)      6  180.000(    40)      0
     11     11  H        5   1.000000(    10)      6  120.000(    26)      1  180.000(    41)      0
     12     12  H        6   1.000000(    11)      1  120.000(    27)      2  180.000(    42)      0
     13     13  O        7   2.800000(    12)      1  179.900(    28)      3  180.000(    43)      0
     14     14  C       13   1.200000(    13)      1  179.900(    29)      2  180.000(    44)      0
     15     15  H       14   1.000000(    14)      1  120.000(    30)      2   90.000(    45)      0
     16     16  H       14   1.000000(    15)      1  120.000(    31)      2  -90.000(    46)      0
     17     17  H        7   2.300000(    16)      1  100.000(    32)      2   90.000(    47)      0
     18     18  Br      17   0.900000(    17)      7  160.000(    33)      1    0.000(    48)      0
 ---------------------------------------------------------------------------------------------------
                         Z-Matrix orientation:                         
 ---------------------------------------------------------------------
 Center     Atomic      Atomic             Coordinates (Angstroms)
 Number     Number       Type             X           Y           Z
 ---------------------------------------------------------------------
      1          6           0        0.000000    0.000000    0.000000
      2          6           0        0.000000    0.000000    1.300000
      3          6           0        1.125833    0.000000    1.950000
      4          6           0        2.251666    0.000000    1.300000
      5          6           0        2.251666    0.000000   -0.000000
      6          6           0        1.125833    0.000000   -0.650000
      7          9           0       -1.212436   -0.000000   -0.700000
      8          1           0       -0.866025   -0.000000    1.800000
      9          1           0        1.125833   -0.000000    2.950000
     10          1           0        3.117691   -0.000000    1.800000
     11          1           0        3.117691   -0.000000   -0.500000
     12          1           0        1.125833   -0.000000   -1.650000
     13          8           0       -3.634860   -0.000000   -2.104230
     14          6           0       -4.672340   -0.000000   -2.707251
     15          1           0       -5.104965    0.866025   -2.957922
     16          1           0       -5.104965   -0.866025   -2.957922
     17          1           0       -1.558318    2.265058   -0.899695
     18         35           0       -1.422973    3.151385   -0.821554
 ---------------------------------------------------------------------
                    Distance matrix (angstroms):
                    1          2          3          4          5
     1  C    0.000000
     2  C    1.300000   0.000000
     3  C    2.251666   1.300000   0.000000
     4  C    2.600000   2.251666   1.300000   0.000000
     5  C    2.251666   2.600000   2.251666   1.300000   0.000000
     6  C    1.300000   2.251666   2.600000   2.251666   1.300000
     7  F    1.400000   2.338803   3.534119   4.000000   3.534119
     8  H    1.997498   1.000000   1.997498   3.157531   3.600000
     9  H    3.157531   1.997498   1.000000   1.997498   3.157531
    10  H    3.600000   3.157531   1.997498   1.000000   1.997498
    11  H    3.157531   3.600000   3.157531   1.997498   1.000000
    12  H    1.997498   3.157531   3.600000   3.157531   1.997498
    13  O    4.199999   4.980059   6.253077   6.799997   6.251317
    14  C    5.399997   6.155390   7.436988   7.999995   7.434452
    15  H    5.963218   6.703772   7.978755   8.543999   7.976172
    16  H    5.963218   6.703772   7.978755   8.543999   7.976172
    17  H    2.892800   3.521009   4.522822   4.948245   4.522822
    18  Br   3.554016   4.056731   4.910107   5.285375   4.910107
                    6          7          8          9         10
     6  C    0.000000
     7  F    2.338803   0.000000
     8  H    3.157531   2.523886   0.000000
     9  H    3.600000   4.334743   2.300000   0.000000
    10  H    3.157531   5.000000   3.983717   2.300000   0.000000
    11  H    1.997498   4.334743   4.600000   3.983717   2.300000
    12  H    1.000000   2.523886   3.983717   4.600000   3.983717
    13  O    4.977849   2.800000   4.786382   6.943301   7.799997
    14  C    6.152324   3.999999   5.899436   8.100821   8.999995
    15  H    6.700697   4.582575   6.430896   8.629970   9.539387
    16  H    6.700697   4.582575   6.430896   8.629970   9.539387
    17  H    3.521009   2.300000   3.591394   5.211076   5.855246
    18  Br   4.056731   3.160748   4.136902   5.536448   6.117303
                   11         12         13         14         15
    11  H    0.000000
    12  H    2.300000   0.000000
    13  O    6.940497   4.782313   0.000000
    14  C    8.096700   5.893776   1.200000   0.000000
    15  H    8.625744   6.425224   1.907878   1.000000   0.000000
    16  H    8.625744   6.425224   1.907878   1.000000   1.732051
    17  H    5.211076   3.591394   3.300517   4.253807   4.332700
    18  Br   5.536448   4.136902   4.058193   4.903618   4.831563
                   16         17         18
    16  H    0.000000
    17  H    5.159329   0.000000
    18  Br   5.853266   0.900000   0.000000
 Stoichiometry    C7H8BrFO
 Framework group  C1[X(C7H8BrFO)]
 Deg. of freedom    48
 Full point group                 C1      NOp   1
 Largest Abelian subgroup         C1      NOp   1
 Largest concise Abelian subgroup C1      NOp   1
                         Standard orientation:                         
 ---------------------------------------------------------------------
 Center     Atomic      Atomic             Coordinates (Angstroms)
 Number     Number       Type             X           Y           Z
 ---------------------------------------------------------------------
      1          6           0       -1.165607   -0.842885   -0.001289
      2          6           0       -1.796555   -0.681544   -1.126399
      3          6           0       -3.056661   -0.361963   -1.124958
      4          6           0       -3.685818   -0.203722    0.001595
      5          6           0       -3.054870   -0.365062    1.126706
      6          6           0       -1.794765   -0.684643    1.125264
      7          9           0        0.191429   -1.187049   -0.002841
      8          1           0       -1.312588   -0.803269   -1.992978
      9          1           0       -3.542005   -0.237855   -1.990427
     10          1           0       -4.655130    0.042110    0.002704
     11          1           0       -3.538838   -0.243338    1.993284
     12          1           0       -1.309420   -0.808751    1.990734
     13          8           0        2.905502   -1.875384   -0.001060
     14          6           0        4.068674   -2.170386    0.001100
     15          1           0        4.766228   -1.453854    0.002307
     16          1           0        4.340433   -3.132751    0.000335
     17          1           0        1.135389    0.910315   -0.000706
     18         35           0        1.201791    1.807861    0.000477
 ---------------------------------------------------------------------
 Rotational constants (GHZ):           0.9947613           0.4592019           0.3473559
 Standard basis: 6-311++G(d,p) (5D, 7F)
 There are   314 symmetry adapted cartesian basis functions of A   symmetry.
 There are   302 symmetry adapted basis functions of A   symmetry.
   302 basis functions,   490 primitive gaussians,   314 cartesian basis functions
    51 alpha electrons       51 beta electrons
       nuclear repulsion energy       716.1909826734 Hartrees.
 NAtoms=   18 NActive=   18 NUniq=   18 SFac= 1.00D+00 NAtFMM=   60 NAOKFM=F Big=F
 Integral buffers will be    131072 words long.
 Raffenetti 2 integral format.
 Two-electron integral symmetry is turned on.
 Force inversion solution in PCM.
 ------------------------------------------------------------------------------
 Polarizable Continuum Model (PCM)
 =================================
 Model                : PCM.
 Atomic radii         : UFF (Universal Force Field).
 Polarization charges : Total charges.
 Charge compensation  : None.
 Solution method      : Matrix inversion.
 Cavity type          : Scaled VdW (van der Waals Surface) (Alpha=1.100).
 Cavity algorithm     : GePol (No added spheres)
                        Default sphere list used, NSphG=   18.
                        Lebedev-Laikov grids with approx.  5.0 points / Ang**2.
                        Smoothing algorithm: York/Karplus (Gamma=1.0000).
                        Polarization charges: spherical gaussians, with
                                              point-specific exponents (IZeta= 3).
                        Self-potential: point-specific (ISelfS= 7).
                        Self-field    : sphere-specific E.n sum rule (ISelfD= 2).
 1st derivatives      : Analytical E(r).r(x)/FMM algorithm (CHGder, D1EAlg=3).
                        Cavity 1st derivative terms included.
 2nd derivatives      : Analytical E(r).r(xy)/FMM algorithm (CHGder, D2EAlg=3).
                        Cavity 2nd derivative terms included.
 Solvent              : Water, Eps=  78.355300 Eps(inf)=   1.777849
 ------------------------------------------------------------------------------
 Spheres list:
 ISph  on   Nord     Re0    Alpha      Xe            Ye            Ze
    1   C      1    1.9255  1.100     -1.165607     -0.842885     -0.001289
    2   C      2    1.9255  1.100     -1.796555     -0.681544     -1.126399
    3   C      3    1.9255  1.100     -3.056661     -0.361963     -1.124958
    4   C      4    1.9255  1.100     -3.685818     -0.203722      0.001595
    5   C      5    1.9255  1.100     -3.054870     -0.365062      1.126706
    6   C      6    1.9255  1.100     -1.794765     -0.684643      1.125264
    7   F      7    1.6820  1.100      0.191429     -1.187049     -0.002841
    8   H      8    1.4430  1.100     -1.312588     -0.803269     -1.992978
    9   H      9    1.4430  1.100     -3.542005     -0.237855     -1.990427
   10   H     10    1.4430  1.100     -4.655130      0.042110      0.002704
   11   H     11    1.4430  1.100     -3.538838     -0.243338      1.993284
   12   H     12    1.4430  1.100     -1.309420     -0.808751      1.990734
   13   O     13    1.7500  1.100      2.905502     -1.875384     -0.001060
   14   C     14    1.9255  1.100      4.068674     -2.170386      0.001100
   15   H     15    1.4430  1.100      4.766228     -1.453854      0.002307
   16   H     16    1.4430  1.100      4.340433     -3.132751      0.000335
   17   H     17    1.4430  1.100      1.135389      0.910315     -0.000706
   18  Br     18    2.0945  1.100      1.201791      1.807861      0.000477
 ------------------------------------------------------------------------------
 One-electron integrals computed using PRISM.
 NBasis=   302 RedAO= T EigKep=  4.16D-06  NBF=   302
 NBsUse=   301 1.00D-06 EigRej=  5.70D-07 NBFU=   301
 ExpMin= 3.50D-02 ExpMax= 4.40D+05 ExpMxC= 1.51D+04 IAcc=3 IRadAn=         5 AccDes= 0.00D+00
 Harris functional with IExCor= 1009 and IRadAn=       5 diagonalized for initial guess.
 HarFok:  IExCor= 1009 AccDes= 0.00D+00 IRadAn=         5 IDoV= 1 UseB2=F ITyADJ=14
 ICtDFT=  3500011 ScaDFX=  1.000000  1.000000  1.000000  1.000000
 FoFCou: FMM=F IPFlag=           0 FMFlag=      100000 FMFlg1=           0
         NFxFlg=           0 DoJE=T BraDBF=F KetDBF=T FulRan=T
         wScrn=  0.000000 ICntrl=       500 IOpCl=  0 I1Cent=   200000004 NGrid=           0
         NMat0=    1 NMatS0=      1 NMatT0=    0 NMatD0=    1 NMtDS0=    0 NMtDT0=    0
 Petite list used in FoFCou.
 Requested convergence on RMS density matrix=1.00D-08 within 128 cycles.
 Requested convergence on MAX density matrix=1.00D-06.
 Requested convergence on             energy=1.00D-06.
 No special actions if energy rises.
 Inv3:  Mode=1 IEnd=    10932843.
 Iteration    1 A*A^-1 deviation from unit magnitude is 4.77D-15 for   1899.
 Iteration    1 A*A^-1 deviation from orthogonality  is 2.64D-15 for   1901   1735.
 Iteration    1 A^-1*A deviation from unit magnitude is 5.22D-15 for   1899.
 Iteration    1 A^-1*A deviation from orthogonality  is 2.10D-15 for   1901   1735.
 Error on total polarization charges =  0.01400
 SCF Done:  E(RM062X) =  -3020.24667769     A.U. after   14 cycles
            NFock= 14  Conv=0.33D-08     -V/T= 2.0000
 DoSCS=F DFT=T ScalE2(SS,OS)=  1.000000  1.000000
 Range of M.O.s used for correlation:     1   301
 NBasis=   302 NAE=    51 NBE=    51 NFC=     0 NFV=     0
 NROrb=    301 NOA=    51 NOB=    51 NVA=   250 NVB=   250

 **** Warning!!: The largest alpha MO coefficient is  0.14041138D+03

 Symmetrizing basis deriv contribution to polar:
 IMax=3 JMax=2 DiffMx= 0.00D+00
 G2DrvN: will do    19 centers at a time, making    1 passes.
 Calling FoFCou, ICntrl=  3107 FMM=F I1Cent=   0 AccDes= 0.00D+00.
 NEqPCM:  Using equilibrium solvation (IEInf=0, Eps=  78.3553, EpsInf=   1.7778)
 G2PCM: DoFxE=T DoFxN=T DoGrad=T DoDP/DQ/DG/TGxP=FFFF NFrqRd=   0 IEInf=0 SqF1=F DoCFld=F IF1Alg=4.
 End of G2Drv F.D. properties file   721 does not exist.
 End of G2Drv F.D. properties file   722 does not exist.
 End of G2Drv F.D. properties file   788 does not exist.
          IDoAtm=111111111111111111
 NEqPCM:  Using equilibrium solvation (IEInf=0, Eps=  78.3553, EpsInf=   1.7778)
          Differentiating once with respect to electric field.
                with respect to dipole field.
          Differentiating once with respect to nuclear coordinates.
 CalDSu exits because no D1Ps are significant.
          There are    57 degrees of freedom in the 1st order CPHF.  IDoFFX=6 NUNeed=     3.
     54 vectors produced by pass  0 Test12= 2.24D-14 1.75D-09 XBig12= 5.84D+01 3.66D+00.
 AX will form    54 AO Fock derivatives at one time.
     54 vectors produced by pass  1 Test12= 2.24D-14 1.75D-09 XBig12= 7.19D+00 4.07D-01.
     54 vectors produced by pass  2 Test12= 2.24D-14 1.75D-09 XBig12= 9.78D-02 7.19D-02.
     54 vectors produced by pass  3 Test12= 2.24D-14 1.75D-09 XBig12= 8.29D-04 6.34D-03.
     54 vectors produced by pass  4 Test12= 2.24D-14 1.75D-09 XBig12= 3.63D-06 3.10D-04.
     53 vectors produced by pass  5 Test12= 2.24D-14 1.75D-09 XBig12= 1.89D-08 2.50D-05.
     41 vectors produced by pass  6 Test12= 2.24D-14 1.75D-09 XBig12= 6.35D-11 1.29D-06.
      8 vectors produced by pass  7 Test12= 2.24D-14 1.75D-09 XBig12= 2.34D-13 9.12D-08.
      2 vectors produced by pass  8 Test12= 2.24D-14 1.75D-09 XBig12= 7.55D-16 4.35D-09.
 InvSVY:  IOpt=1 It=  1 EMax= 7.11D-15
 Solved reduced A of dimension   374 with    57 vectors.
 Isotropic polarizability for W=    0.000000      107.90 Bohr**3.
 End of Minotr F.D. properties file   721 does not exist.
 End of Minotr F.D. properties file   722 does not exist.
 End of Minotr F.D. properties file   788 does not exist.

 **********************************************************************

            Population analysis using the SCF Density.

 **********************************************************************

 Orbital symmetries:
       Occupied  (A) (A) (A) (A) (A) (A) (A) (A) (A) (A) (A) (A)
                 (A) (A) (A) (A) (A) (A) (A) (A) (A) (A) (A) (A)
                 (A) (A) (A) (A) (A) (A) (A) (A) (A) (A) (A) (A)
                 (A) (A) (A) (A) (A) (A) (A) (A) (A) (A) (A) (A)
                 (A) (A) (A)
       Virtual   (A) (A) (A) (A) (A) (A) (A) (A) (A) (A) (A) (A)
                 (A) (A) (A) (A) (A) (A) (A) (A) (A) (A) (A) (A)
                 (A) (A) (A) (A) (A) (A) (A) (A) (A) (A) (A) (A)
                 (A) (A) (A) (A) (A) (A) (A) (A) (A) (A) (A) (A)
                 (A) (A) (A) (A) (A) (A) (A) (A) (A) (A) (A) (A)
                 (A) (A) (A) (A) (A) (A) (A) (A) (A) (A) (A) (A)
                 (A) (A) (A) (A) (A) (A) (A) (A) (A) (A) (A) (A)
                 (A) (A) (A) (A) (A) (A) (A) (A) (A) (A) (A) (A)
                 (A) (A) (A) (A) (A) (A) (A) (A) (A) (A) (A) (A)
                 (A) (A) (A) (A) (A) (A) (A) (A) (A) (A) (A) (A)
                 (A) (A) (A) (A) (A) (A) (A) (A) (A) (A) (A) (A)
                 (A) (A) (A) (A) (A) (A) (A) (A) (A) (A) (A) (A)
                 (A) (A) (A) (A) (A) (A) (A) (A) (A) (A) (A) (A)
                 (A) (A) (A) (A) (A) (A) (A) (A) (A) (A) (A) (A)
                 (A) (A) (A) (A) (A) (A) (A) (A) (A) (A) (A) (A)
                 (A) (A) (A) (A) (A) (A) (A) (A) (A) (A) (A) (A)
                 (A) (A) (A) (A) (A) (A) (A) (A) (A) (A) (A) (A)
                 (A) (A) (A) (A) (A) (A) (A) (A) (A) (A) (A) (A)
                 (A) (A) (A) (A) (A) (A) (A) (A) (A) (A) (A) (A)
                 (A) (A) (A) (A) (A) (A) (A) (A) (A) (A) (A) (A)
                 (A) (A) (A) (A) (A) (A) (A) (A) (A) (A)
 The electronic state is 1-A.
 Alpha  occ. eigenvalues -- -485.32954 -63.33301 -57.15850 -57.15668 -57.15668
 Alpha  occ. eigenvalues --  -25.24921 -19.63857 -10.61535 -10.61196 -10.52331
 Alpha  occ. eigenvalues --  -10.52328 -10.52092 -10.52081 -10.51357  -9.03236
 Alpha  occ. eigenvalues --   -6.86840  -6.84657  -6.84657  -2.90545  -2.88741
 Alpha  occ. eigenvalues --   -2.88740  -2.87505  -2.87505  -1.35477  -1.19082
 Alpha  occ. eigenvalues --   -1.03091  -0.99624  -0.89267  -0.88348  -0.74886
 Alpha  occ. eigenvalues --   -0.73697  -0.72226  -0.66261  -0.60428  -0.58936
 Alpha  occ. eigenvalues --   -0.58587  -0.57218  -0.54269  -0.53880  -0.53428
 Alpha  occ. eigenvalues --   -0.52452  -0.49791  -0.47662  -0.47492  -0.44373
 Alpha  occ. eigenvalues --   -0.41966  -0.37956  -0.37905  -0.35000  -0.33835
 Alpha  occ. eigenvalues --   -0.32720
 Alpha virt. eigenvalues --   -0.00427  -0.00045   0.00992   0.01572   0.02435
 Alpha virt. eigenvalues --    0.02543   0.02566   0.03367   0.03673   0.04097
 Alpha virt. eigenvalues --    0.04560   0.05763   0.06364   0.06393   0.07265
 Alpha virt. eigenvalues --    0.07938   0.08002   0.09552   0.10337   0.11097
 Alpha virt. eigenvalues --    0.11968   0.12100   0.12970   0.13614   0.13641
 Alpha virt. eigenvalues --    0.13925   0.14332   0.14538   0.15006   0.15015
 Alpha virt. eigenvalues --    0.15694   0.16174   0.16849   0.17613   0.18344
 Alpha virt. eigenvalues --    0.18609   0.18837   0.20297   0.21071   0.21938
 Alpha virt. eigenvalues --    0.22440   0.22469   0.22795   0.23859   0.26383
 Alpha virt. eigenvalues --    0.26623   0.27282   0.29949   0.31502   0.32147
 Alpha virt. eigenvalues --    0.32486   0.33388   0.34759   0.35656   0.36768
 Alpha virt. eigenvalues --    0.36844   0.38350   0.40026   0.40907   0.41745
 Alpha virt. eigenvalues --    0.42472   0.43031   0.43776   0.44729   0.45412
 Alpha virt. eigenvalues --    0.46306   0.47549   0.51764   0.53963   0.54426
 Alpha virt. eigenvalues --    0.55600   0.57070   0.57618   0.58920   0.59067
 Alpha virt. eigenvalues --    0.59777   0.60476   0.61336   0.63126   0.63171
 Alpha virt. eigenvalues --    0.63962   0.64420   0.65379   0.65967   0.68196
 Alpha virt. eigenvalues --    0.69554   0.69989   0.70872   0.71712   0.74653
 Alpha virt. eigenvalues --    0.75188   0.76458   0.77700   0.81638   0.81680
 Alpha virt. eigenvalues --    0.85047   0.85571   0.87763   0.89189   0.90094
 Alpha virt. eigenvalues --    0.94196   0.94410   0.97913   1.00154   1.00946
 Alpha virt. eigenvalues --    1.01991   1.02247   1.04747   1.06277   1.08016
 Alpha virt. eigenvalues --    1.08379   1.09822   1.11590   1.16076   1.16178
 Alpha virt. eigenvalues --    1.16349   1.19378   1.23501   1.24060   1.27678
 Alpha virt. eigenvalues --    1.29107   1.34402   1.35332   1.41265   1.51543
 Alpha virt. eigenvalues --    1.52348   1.52428   1.53850   1.56983   1.59597
 Alpha virt. eigenvalues --    1.60516   1.63030   1.64847   1.67375   1.68082
 Alpha virt. eigenvalues --    1.68198   1.68892   1.71115   1.72860   1.74086
 Alpha virt. eigenvalues --    1.76598   1.76766   1.80703   1.82256   1.84766
 Alpha virt. eigenvalues --    1.85767   1.85801   1.90395   1.94352   1.96639
 Alpha virt. eigenvalues --    1.97442   1.99121   2.01545   2.04251   2.04501
 Alpha virt. eigenvalues --    2.05222   2.05751   2.06141   2.07111   2.12371
 Alpha virt. eigenvalues --    2.15717   2.17286   2.17456   2.18791   2.20237
 Alpha virt. eigenvalues --    2.21939   2.23909   2.36376   2.40919   2.46536
 Alpha virt. eigenvalues --    2.48628   2.50619   2.51071   2.57932   2.63574
 Alpha virt. eigenvalues --    2.67162   2.70990   2.71792   2.75330   2.76727
 Alpha virt. eigenvalues --    2.76884   2.78685   2.79431   2.81243   2.86553
 Alpha virt. eigenvalues --    2.86627   2.87961   2.88727   2.90568   2.96417
 Alpha virt. eigenvalues --    2.98015   2.98574   2.98684   3.03635   3.08076
 Alpha virt. eigenvalues --    3.12002   3.24209   3.27351   3.34555   3.39723
 Alpha virt. eigenvalues --    3.42016   3.55371   3.59828   3.61734   3.64749
 Alpha virt. eigenvalues --    3.75262   3.76014   3.87228   3.88983   3.98626
 Alpha virt. eigenvalues --    4.00593   4.05051   4.08750   4.14213   4.18059
 Alpha virt. eigenvalues --    4.19440   4.25499   4.25941   4.26365   4.27875
 Alpha virt. eigenvalues --    4.28697   4.32837   4.37132   4.90284   4.95696
 Alpha virt. eigenvalues --    4.95718   5.11271   5.23822   5.81719   6.53630
 Alpha virt. eigenvalues --    6.61229   6.88581   6.98757   7.62632   7.65968
 Alpha virt. eigenvalues --    7.82953  23.73057  24.17405  24.27011  24.31769
 Alpha virt. eigenvalues --   24.54411  24.57516  24.72978  48.51022  50.06799
 Alpha virt. eigenvalues --   66.96740 290.78239 290.81765 291.023221021.13367
          Condensed to atoms (all electrons):
               1          2          3          4          5          6
     1  C   10.149208  -0.872928  -1.104733  -0.077579  -1.102909  -0.865650
     2  C   -0.872928  11.997704   0.920133  -0.646960   0.041662  -5.749095
     3  C   -1.104733   0.920133   5.737127   0.483286  -0.241524   0.036560
     4  C   -0.077579  -0.646960   0.483286   6.415085   0.481954  -0.639844
     5  C   -1.102909   0.041662  -0.241524   0.481954   5.736831   0.914894
     6  C   -0.865650  -5.749095   0.036560  -0.639844   0.914894  11.994155
     7  F    0.525134  -0.267794  -0.052940   0.039175  -0.053123  -0.267903
     8  H   -0.185780   0.645999  -0.019363  -0.015802   0.018968  -0.106084
     9  H    0.021508  -0.069443   0.425874  -0.107846  -0.009555   0.074435
    10  H    0.034137  -0.021830  -0.064546   0.501039  -0.064664  -0.021575
    11  H    0.021607   0.074637  -0.009562  -0.107983   0.426034  -0.069763
    12  H   -0.185349  -0.105440   0.018881  -0.015767  -0.019589   0.645200
    13  O    0.041020  -0.013905  -0.001294  -0.000451  -0.001278  -0.013920
    14  C    0.003266  -0.002459  -0.000487   0.000641  -0.000503  -0.002609
    15  H    0.000177  -0.000109  -0.000041  -0.000079  -0.000040  -0.000107
    16  H   -0.001493   0.000503   0.000152   0.000006   0.000151   0.000496
    17  H   -0.153774   0.032026   0.031480  -0.005338   0.031813   0.031717
    18  Br   0.250391  -0.056949  -0.052750   0.021978  -0.052939  -0.056264
               7          8          9         10         11         12
     1  C    0.525134  -0.185780   0.021508   0.034137   0.021607  -0.185349
     2  C   -0.267794   0.645999  -0.069443  -0.021830   0.074637  -0.105440
     3  C   -0.052940  -0.019363   0.425874  -0.064546  -0.009562   0.018881
     4  C    0.039175  -0.015802  -0.107846   0.501039  -0.107983  -0.015767
     5  C   -0.053123   0.018968  -0.009555  -0.064664   0.426034  -0.019589
     6  C   -0.267903  -0.106084   0.074435  -0.021575  -0.069763   0.645200
     7  F    9.331557  -0.028590  -0.001387   0.001532  -0.001382  -0.028548
     8  H   -0.028590   0.486169  -0.010071  -0.000247   0.002899   0.000384
     9  H   -0.001387  -0.010071   0.471856  -0.012814   0.000670   0.002897
    10  H    0.001532  -0.000247  -0.012814   0.478427  -0.012822  -0.000240
    11  H   -0.001382   0.002899   0.000670  -0.012822   0.471871  -0.010084
    12  H   -0.028548   0.000384   0.002897  -0.000240  -0.010084   0.486184
    13  O    0.007784   0.000394   0.000047   0.000004   0.000047   0.000395
    14  C    0.003348  -0.000346  -0.000036   0.000013  -0.000036  -0.000344
    15  H   -0.000786  -0.000059   0.000007  -0.000002   0.000007  -0.000061
    16  H   -0.000302   0.000032  -0.000001  -0.000001  -0.000001   0.000033
    17  H    0.028111   0.007506   0.001752  -0.001447   0.001760   0.007444
    18  Br  -0.029277  -0.007005  -0.002801   0.002057  -0.002809  -0.006951
              13         14         15         16         17         18
     1  C    0.041020   0.003266   0.000177  -0.001493  -0.153774   0.250391
     2  C   -0.013905  -0.002459  -0.000109   0.000503   0.032026  -0.056949
     3  C   -0.001294  -0.000487  -0.000041   0.000152   0.031480  -0.052750
     4  C   -0.000451   0.000641  -0.000079   0.000006  -0.005338   0.021978
     5  C   -0.001278  -0.000503  -0.000040   0.000151   0.031813  -0.052939
     6  C   -0.013920  -0.002609  -0.000107   0.000496   0.031717  -0.056264
     7  F    0.007784   0.003348  -0.000786  -0.000302   0.028111  -0.029277
     8  H    0.000394  -0.000346  -0.000059   0.000032   0.007506  -0.007005
     9  H    0.000047  -0.000036   0.000007  -0.000001   0.001752  -0.002801
    10  H    0.000004   0.000013  -0.000002  -0.000001  -0.001447   0.002057
    11  H    0.000047  -0.000036   0.000007  -0.000001   0.001760  -0.002809
    12  H    0.000395  -0.000344  -0.000061   0.000033   0.007444  -0.006951
    13  O    8.214617   0.275421  -0.085813  -0.090260   0.028555  -0.023925
    14  C    0.275421   4.796703   0.412379   0.420159  -0.003389   0.000452
    15  H   -0.085813   0.412379   0.666432  -0.120518   0.003158   0.000058
    16  H   -0.090260   0.420159  -0.120518   0.664794  -0.000314   0.000046
    17  H    0.028555  -0.003389   0.003158  -0.000314   1.160659  -0.018278
    18  Br  -0.023925   0.000452   0.000058   0.000046  -0.018278  34.849367
 Mulliken charges:
               1
     1  C   -0.496253
     2  C    0.094250
     3  C   -0.106255
     4  C   -0.325514
     5  C   -0.106184
     6  C    0.095359
     7  F   -0.204610
     8  H    0.210995
     9  H    0.214910
    10  H    0.182980
    11  H    0.214908
    12  H    0.210956
    13  O   -0.337439
    14  C    0.097825
    15  H    0.125396
    16  H    0.126518
    17  H   -0.183443
    18  Br   0.185600
 Sum of Mulliken charges =  -0.00000
 Mulliken charges with hydrogens summed into heavy atoms:
               1
     1  C   -0.496253
     2  C    0.305245
     3  C    0.108655
     4  C   -0.142534
     5  C    0.108724
     6  C    0.306315
     7  F   -0.204610
    13  O   -0.337439
    14  C    0.349740
    18  Br   0.002157
 APT charges:
               1
     1  C    0.778706
     2  C   -0.180245
     3  C    0.002851
     4  C   -0.091212
     5  C    0.002873
     6  C   -0.180257
     7  F   -0.722353
     8  H    0.093581
     9  H    0.066007
    10  H    0.063026
    11  H    0.065998
    12  H    0.093590
    13  O   -0.724444
    14  C    0.705851
    15  H    0.004775
    16  H    0.004009
    17  H    0.181395
    18  Br  -0.164149
 Sum of APT charges =  -0.00000
 APT charges with hydrogens summed into heavy atoms:
               1
     1  C    0.778706
     2  C   -0.086664
     3  C    0.068857
     4  C   -0.028186
     5  C    0.068870
     6  C   -0.086667
     7  F   -0.722353
    13  O   -0.724444
    14  C    0.714635
    18  Br   0.017246
 Electronic spatial extent (au):  <R**2>=           3012.7493
 Charge=             -0.0000 electrons
 Dipole moment (field-independent basis, Debye):
    X=              0.3783    Y=             -1.2422    Z=              0.0065  Tot=              1.2986
 Quadrupole moment (field-independent basis, Debye-Ang):
   XX=            -41.2508   YY=            -71.2730   ZZ=            -64.4727
   XY=             -9.5626   XZ=              0.0161   YZ=             -0.0222
 Traceless Quadrupole moment (field-independent basis, Debye-Ang):
   XX=             17.7481   YY=            -12.2742   ZZ=             -5.4738
   XY=             -9.5626   XZ=              0.0161   YZ=             -0.0222
 Octapole moment (field-independent basis, Debye-Ang**2):
  XXX=            128.7789  YYY=             34.4208  ZZZ=             -0.0065  XYY=             49.1689
  XXY=            -35.7989  XXZ=              0.0596  XZZ=              5.9856  YZZ=              8.8158
  YYZ=              0.0386  XYZ=             -0.0087
 Hexadecapole moment (field-independent basis, Debye-Ang**3):
 XXXX=          -1868.3958 YYYY=           -795.7812 ZZZZ=           -260.0742 XXXY=           -247.9071
 XXXZ=              0.1704 YYYX=            -43.4794 YYYZ=              0.0328 ZZZX=             -0.0020
 ZZZY=             -0.0089 XXYY=           -466.7352 XXZZ=           -438.3339 YYZZ=           -193.0106
 XXYZ=             -0.1553 YYXZ=              0.0648 ZZXY=             11.8932
 N-N= 7.161909826734D+02 E-N=-8.635309467912D+03  KE= 3.020226411879D+03
  Exact polarizability: 130.959  -9.969  80.036   0.009  -0.045 112.709
 Approx polarizability: 125.215 -10.656  78.370   0.010  -0.042 109.192
 D2PCM: PCM CHGder 2nd derivatives, FixD1E=F FixD2E=F DoIter=F DoCFld=F I1PDM=0
 Calling FoFJK, ICntrl=    100127 FMM=F ISym2X=0 I1Cent= 0 IOpClX= 0 NMat=1 NMatS=1 NMatT=0.
 ***** Axes restored to original set *****
 -------------------------------------------------------------------
 Center     Atomic                   Forces (Hartrees/Bohr)
 Number     Number              X              Y              Z
 -------------------------------------------------------------------
      1        6          -0.089707795   -0.000460048   -0.051787693
      2        6          -0.053553951   -0.000030097    0.015074999
      3        6           0.002580643    0.000232029    0.037616324
      4        6           0.039538153   -0.000088229    0.022826355
      5        6           0.033864971    0.000231699   -0.016568720
      6        6          -0.013721354   -0.000031534   -0.053922503
      7        9           0.024796112   -0.000044880    0.014314288
      8        1          -0.065606104   -0.000005785    0.036001048
      9        1          -0.001662420   -0.000014526    0.073829599
     10        1           0.064288593    0.000001954    0.037116447
     11        1           0.063107793   -0.000014011   -0.038354279
     12        1          -0.001624611   -0.000005211   -0.074816366
     13        8           0.016278338    0.000194494    0.009400595
     14        6           0.060055601    0.000038533    0.035001134
     15        1          -0.039118679    0.071378613   -0.022750681
     16        1          -0.039122479   -0.071338975   -0.022752173
     17        1          -0.178938677   -1.169133437   -0.103339357
     18       35           0.178545867    1.169089410    0.103110983
 -------------------------------------------------------------------
 Cartesian Forces:  Max     1.169133437 RMS     0.231284789
 -----------------------------------------------------------------------------------------------
                       Internal Coordinate Forces (Hartree/Bohr or radian)
  Cent   Atom   N1       Length/X         N2         Alpha/Y        N3         Beta/Z          J
 -----------------------------------------------------------------------------------------------
      1  C 
      2  C        1   0.037721(     1)
      3  C        2   0.154184(     2)      1   0.163585(    18)
      4  C        3   0.222467(     3)      2   0.417085(    19)      1   0.000574(    34)     0
      5  C        4   0.184744(     4)      3   0.452431(    20)      2   0.000282(    35)     0
      6  C        5   0.078742(     5)      4   0.253439(    21)      3  -0.000104(    36)     0
      7  F        1  -0.025975(     6)      2  -0.000001(    22)      3   0.000184(    37)     0
      8  H        2   0.074817(     7)      3   0.003071(    23)      4  -0.000009(    38)     0
      9  H        3   0.073830(     8)      4   0.003142(    24)      5  -0.000024(    39)     0
     10  H        4   0.074234(     9)      5  -0.000001(    25)      6   0.000003(    40)     0
     11  H        5   0.073830(    10)      6  -0.003141(    26)      1  -0.000023(    41)     0
     12  H        6   0.074816(    11)      1  -0.003070(    27)      2  -0.000009(    42)     0
     13  O        7   0.002202(    12)      1   0.000018(    28)      3  -0.000003(    43)     0
     14  C       13   0.021000(    13)      1   0.000103(    29)      2  -0.000000(    44)     0
     15  H       14   0.084442(    14)      1   0.006616(    30)      2   0.000120(    45)     0
     16  H       14   0.084410(    15)      1   0.006660(    31)      2  -0.000119(    46)     0
     17  H        7   0.000036(    16)      1   0.001913(    32)      2  -0.000034(    47)     0
     18  Br      17   1.187131(    17)      7  -0.000065(    33)      1  -0.000014(    48)     0
 -----------------------------------------------------------------------------------------------
 Internal  Forces:  Max     1.187131226 RMS     0.206006523

 GradGradGradGradGradGradGradGradGradGradGradGradGradGradGradGradGradGrad
 Berny optimization.
 Search for a local minimum.
 Step number   1 out of a maximum of   27
 All quantities printed in internal units (Hartrees-Bohrs-Radians)
 Second derivative matrix not updated -- analytic derivatives used.
 The second derivative matrix:
                          d1        d2        d3        d4        d5
           d1           0.89079
           d2          -0.02937   1.00829
           d3          -0.36418   0.41383   1.58110
           d4          -0.15372   0.02399   0.40196   0.99775
           d5           0.05448  -0.18061  -0.37830  -0.01355   0.95811
           d6           0.04590   0.04747   0.02915  -0.01675  -0.04434
           d7           0.00094   0.00214  -0.00042   0.00254   0.00230
           d8          -0.00059   0.00406   0.00479  -0.00017  -0.00035
           d9          -0.00088  -0.00091   0.00419   0.00507   0.00085
           d10          0.00315   0.00221  -0.00077   0.00164   0.00150
           d11         -0.01059  -0.00735   0.00348   0.01017   0.01180
           d12          0.00067   0.00079   0.00047  -0.00020  -0.00055
           d13         -0.00001  -0.00001  -0.00001   0.00000   0.00000
           d14          0.00004   0.00005   0.00003  -0.00001  -0.00003
           d15          0.00004   0.00005   0.00003  -0.00001  -0.00003
           d16         -0.00055  -0.00071  -0.00031   0.00024   0.00040
           d17         -0.00001  -0.00003   0.00005   0.00006  -0.00001
                          d6        d7        d8        d9        d10
           d6           0.30745
           d7          -0.00011   0.57548
           d8           0.00099   0.00037   0.57468
           d9           0.00040   0.00018   0.00043   0.57389
           d10          0.00099   0.00011   0.00022   0.00043   0.57469
           d11         -0.00011   0.00009   0.00011   0.00018   0.00037
           d12         -0.00130  -0.00001   0.00004   0.00002   0.00004
           d13          0.00005  -0.00000  -0.00000  -0.00000  -0.00000
           d14         -0.00009  -0.00000   0.00000   0.00000   0.00000
           d15         -0.00010  -0.00000   0.00000   0.00000   0.00000
           d16          0.00221   0.00008  -0.00004  -0.00002  -0.00004
           d17          0.00001   0.00004  -0.00000   0.00000  -0.00000
                          d11       d12       d13       d14       d15
           d11          0.57546
           d12         -0.00001   0.00437
           d13         -0.00000   0.00020   0.95642
           d14         -0.00000   0.00022   0.03185   0.57486
           d15         -0.00000   0.00016   0.03173   0.00158   0.57477
           d16          0.00008  -0.00061  -0.00004  -0.00001  -0.00001
           d17          0.00004   0.00010  -0.00012   0.00004   0.00003
                          d16       d17
           d16          0.00759
           d17          0.00367   3.26391
 ITU=  0
     Eigenvalues ---    0.00425   0.00767   0.29772   0.57115   0.57323
     Eigenvalues ---    0.57348   0.57408   0.57443   0.57500   0.57566
     Eigenvalues ---    0.58305   0.76883   0.81419   0.96167   1.08896
     Eigenvalues ---    2.19231   3.26392
 RFO step:  Lambda=-4.80663004D-01 EMin= 4.24983566D-03
 Linear search not attempted -- first point.
 Maximum step size (   0.300) exceeded in Quadratic search.
    -- Step size scaled by   0.709
 Variable       Old X    -DE/DX   Delta X   Delta X   Delta X     New X
                                 (Linear)    (Quad)   (Total)
    d1        2.45664   0.03772   0.00000   0.04621   0.04621   2.50285
    d2        2.45664   0.15418   0.00000   0.06230   0.06230   2.51894
    d3        2.45664   0.22247   0.00000   0.06949   0.06949   2.52613
    d4        2.45664   0.18474   0.00000   0.07313   0.07313   2.52977
    d5        2.45664   0.07874   0.00000   0.06245   0.06245   2.51909
    d6        2.64562  -0.02597   0.00000  -0.02743  -0.02743   2.61818
    d7        1.88973   0.07482   0.00000   0.04974   0.04974   1.93946
    d8        1.88973   0.07383   0.00000   0.04909   0.04909   1.93882
    d9        1.88973   0.07423   0.00000   0.04929   0.04929   1.93901
   d10        1.88973   0.07383   0.00000   0.04916   0.04916   1.93889
   d11        1.88973   0.07482   0.00000   0.04946   0.04946   1.93918
   d12        5.29123   0.00220   0.00000   0.00291   0.00291   5.29414
   d13        2.26767   0.02100   0.00000   0.00789   0.00789   2.27556
   d14        1.88973   0.08444   0.00000   0.05640   0.05640   1.94612
   d15        1.88973   0.08441   0.00000   0.05638   0.05638   1.94611
   d16        4.34637   0.00004   0.00000  -0.00141  -0.00141   4.34496
   d17        1.70075   1.18713   0.00000   0.22482   0.22482   1.92558
         Item               Value     Threshold  Converged?
 Maximum Force            1.187131     0.000450     NO 
 RMS     Force            0.303633     0.000300     NO 
 Maximum Displacement     0.224824     0.001800     NO 
 RMS     Displacement     0.072761     0.001200     NO 
 Predicted change in Energy=-2.416335D-01
 GradGradGradGradGradGradGradGradGradGradGradGradGradGradGradGradGradGrad

 ---------------------------------------------------------------------------------------------------
                            Z-MATRIX (ANGSTROMS AND DEGREES)
   CD    Cent   Atom    N1       Length/X        N2       Alpha/Y        N3        Beta/Z          J
 ---------------------------------------------------------------------------------------------------
      1      1  C 
      2      2  C        1   1.324453(     1)
      3      3  C        2   1.332967(     2)      1  120.000(    18)
      4      4  C        3   1.336773(     3)      2  120.000(    19)      1    0.000(    34)      0
      5      5  C        4   1.338698(     4)      3  120.000(    20)      2    0.000(    35)      0
      6      6  C        5   1.333047(     5)      4  120.000(    21)      3    0.000(    36)      0
      7      7  F        1   1.385482(     6)      2  120.000(    22)      3  180.000(    37)      0
      8      8  H        2   1.026321(     7)      3  120.000(    23)      4  180.000(    38)      0
      9      9  H        3   1.025977(     8)      4  120.000(    24)      5  180.000(    39)      0
     10     10  H        4   1.026082(     9)      5  120.000(    25)      6  180.000(    40)      0
     11     11  H        5   1.026017(    10)      6  120.000(    26)      1  180.000(    41)      0
     12     12  H        6   1.026172(    11)      1  120.000(    27)      2  180.000(    42)      0
     13     13  O        7   2.801539(    12)      1  179.900(    28)      3  180.000(    43)      0
     14     14  C       13   1.204175(    13)      1  179.900(    29)      2  180.000(    44)      0
     15     15  H       14   1.029844(    14)      1  120.000(    30)      2   90.000(    45)      0
     16     16  H       14   1.029836(    15)      1  120.000(    31)      2  -90.000(    46)      0
     17     17  H        7   2.299252(    16)      1  100.000(    32)      2   90.000(    47)      0
     18     18  Br      17   1.018972(    17)      7  160.000(    33)      1    0.000(    48)      0
 ---------------------------------------------------------------------------------------------------
                         Z-Matrix orientation:                         
 ---------------------------------------------------------------------
 Center     Atomic      Atomic             Coordinates (Angstroms)
 Number     Number       Type             X           Y           Z
 ---------------------------------------------------------------------
      1          6           0        0.000000    0.000000    0.000000
      2          6           0        0.000000    0.000000    1.324453
      3          6           0        1.154384    0.000000    1.990937
      4          6           0        2.312063    0.000000    1.322551
      5          6           0        2.312063    0.000000   -0.016148
      6          6           0        1.157610    0.000000   -0.682671
      7          9           0       -1.199863   -0.000000   -0.692741
      8          1           0       -0.888820   -0.000000    1.837613
      9          1           0        1.154384   -0.000000    3.016914
     10          1           0        3.200676   -0.000000    1.835592
     11          1           0        3.200619   -0.000000   -0.529156
     12          1           0        1.148137   -0.000000   -1.708799
     13          8           0       -3.623618   -0.000000   -2.097743
     14          6           0       -4.664705   -0.000000   -2.702866
     15          1           0       -5.110239    0.891871   -2.961021
     16          1           0       -5.110236   -0.891864   -2.961019
     17          1           0       -1.545633    2.264321   -0.892371
     18         35           0       -1.392396    3.267812   -0.803900
 ---------------------------------------------------------------------
                    Distance matrix (angstroms):
                    1          2          3          4          5
     1  C    0.000000
     2  C    1.324453   0.000000
     3  C    2.301398   1.332967   0.000000
     4  C    2.663602   2.312063   1.336773   0.000000
     5  C    2.312119   2.672610   2.317026   1.338698   0.000000
     6  C    1.343913   2.317026   2.673610   2.313801   1.333047
     7  F    1.385482   2.347071   3.569958   4.049076   3.576506
     8  H    2.041280   1.026321   2.048948   3.242058   3.698929
     9  H    3.230227   2.048664   1.025977   2.052093   3.246488
    10  H    3.689678   3.241233   2.052180   1.026082   2.053916
    11  H    3.244067   3.698626   3.246221   2.053862   1.026017
    12  H    2.058692   3.243276   3.699741   3.247122   2.054213
    13  O    4.187019   4.984178   6.288609   6.850599   6.290099
    14  C    5.391193   6.162692   7.476201   8.054767   7.476212
    15  H    5.973075   6.728690   8.035099   8.615972   8.034816
    16  H    5.973070   6.728685   8.035094   8.615968   8.034812
    17  H    2.883133   3.525683   4.553098   4.991477   4.558150
    18  Br   3.641925   4.140924   4.997579   5.378048   5.002216
                    6          7          8          9         10
     6  C    0.000000
     7  F    2.357494   0.000000
     8  H    3.246492   2.549400   0.000000
     9  H    3.699586   4.393633   2.359116   0.000000
    10  H    3.242802   5.075156   4.089496   2.362802   0.000000
    11  H    2.048769   4.403521   4.724945   4.094104   2.364748
    12  H    1.026172   2.558413   4.089772   4.725717   4.095805
    13  O    4.986238   2.801539   4.792301   6.999215   7.876681
    14  C    6.162835   4.005713   5.905359   8.159514   9.080849
    15  H    6.728465   4.607773   6.453116   8.704977   9.637128
    16  H    6.728460   4.607768   6.453111   8.704973   9.637123
    17  H    3.532513   2.299252   3.607128   5.263055   5.924220
    18  Br   4.146785   3.275366   4.231995   5.635894   6.224293
                   11         12         13         14         15
    11  H    0.000000
    12  H    2.367327   0.000000
    13  O    7.002191   4.787580   0.000000
    14  C    8.160168   5.897229   1.204175   0.000000
    15  H    8.705157   6.444437   1.936679   1.029844   0.000000
    16  H    8.705153   6.444432   1.936672   1.029836   1.783735
    17  H    5.271241   3.612492   3.301226   4.258363   4.343886
    18  Br   5.643569   4.236950   4.163049   4.999267   4.911275
                   16         17         18
    16  H    0.000000
    17  H    5.191069   0.000000
    18  Br   5.981505   1.018972   0.000000
 Stoichiometry    C7H8BrFO
 Framework group  C1[X(C7H8BrFO)]
 Deg. of freedom    48
 Full point group                 C1      NOp   1
 Largest Abelian subgroup         C1      NOp   1
 Largest concise Abelian subgroup C1      NOp   1
                         Standard orientation:                         
 ---------------------------------------------------------------------
 Center     Atomic      Atomic             Coordinates (Angstroms)
 Number     Number       Type             X           Y           Z
 ---------------------------------------------------------------------
      1          6           0       -1.161467   -0.871942   -0.008441
      2          6           0       -1.799569   -0.697335   -1.155836
      3          6           0       -3.086866   -0.351404   -1.156619
      4          6           0       -3.733801   -0.180717    0.000664
      5          6           0       -3.088836   -0.357202    1.160399
      6          6           0       -1.801462   -0.703153    1.161182
      7          9           0        0.176545   -1.231501   -0.007628
      8          1           0       -1.302879   -0.828382   -2.044351
      9          1           0       -3.581166   -0.216146   -2.045438
     10          1           0       -4.724727    0.085571    0.000061
     11          1           0       -3.585379   -0.226194    2.048652
     12          1           0       -1.299160   -0.840548    2.045401
     13          8           0        2.882086   -1.958565   -0.001093
     14          6           0        4.044994   -2.271079    0.003122
     15          1           0        4.773727   -1.543402    0.006578
     16          1           0        4.310814   -3.266016    0.001874
     17          1           0        1.149756    0.851617   -0.001422
     18         35           0        1.239299    1.866643    0.001120
 ---------------------------------------------------------------------
 Rotational constants (GHZ):           0.9297348           0.4519052           0.3370760
 Standard basis: 6-311++G(d,p) (5D, 7F)
 There are   314 symmetry adapted cartesian basis functions of A   symmetry.
 There are   302 symmetry adapted basis functions of A   symmetry.
   302 basis functions,   490 primitive gaussians,   314 cartesian basis functions
    51 alpha electrons       51 beta electrons
       nuclear repulsion energy       700.7043705566 Hartrees.
 NAtoms=   18 NActive=   18 NUniq=   18 SFac= 1.00D+00 NAtFMM=   60 NAOKFM=F Big=F
 Integral buffers will be    131072 words long.
 Raffenetti 2 integral format.
 Two-electron integral symmetry is turned on.
 Force inversion solution in PCM.
 ------------------------------------------------------------------------------
 Polarizable Continuum Model (PCM)
 =================================
 Model                : PCM.
 Atomic radii         : UFF (Universal Force Field).
 Polarization charges : Total charges.
 Charge compensation  : None.
 Solution method      : Matrix inversion.
 Cavity type          : Scaled VdW (van der Waals Surface) (Alpha=1.100).
 Cavity algorithm     : GePol (No added spheres)
                        Default sphere list used, NSphG=   18.
                        Lebedev-Laikov grids with approx.  5.0 points / Ang**2.
                        Smoothing algorithm: York/Karplus (Gamma=1.0000).
                        Polarization charges: spherical gaussians, with
                                              point-specific exponents (IZeta= 3).
                        Self-potential: point-specific (ISelfS= 7).
                        Self-field    : sphere-specific E.n sum rule (ISelfD= 2).
 1st derivatives      : Analytical E(r).r(x)/FMM algorithm (CHGder, D1EAlg=3).
                        Cavity 1st derivative terms included.
 Solvent              : Water, Eps=  78.355300 Eps(inf)=   1.777849
 ------------------------------------------------------------------------------
 Spheres list:
 ISph  on   Nord     Re0    Alpha      Xe            Ye            Ze
    1   C      1    1.9255  1.100     -1.161467     -0.871942     -0.008441
    2   C      2    1.9255  1.100     -1.799569     -0.697335     -1.155836
    3   C      3    1.9255  1.100     -3.086866     -0.351404     -1.156619
    4   C      4    1.9255  1.100     -3.733801     -0.180717      0.000664
    5   C      5    1.9255  1.100     -3.088836     -0.357202      1.160399
    6   C      6    1.9255  1.100     -1.801462     -0.703153      1.161182
    7   F      7    1.6820  1.100      0.176545     -1.231501     -0.007628
    8   H      8    1.4430  1.100     -1.302879     -0.828382     -2.044351
    9   H      9    1.4430  1.100     -3.581166     -0.216146     -2.045438
   10   H     10    1.4430  1.100     -4.724727      0.085571      0.000061
   11   H     11    1.4430  1.100     -3.585379     -0.226194      2.048652
   12   H     12    1.4430  1.100     -1.299160     -0.840548      2.045401
   13   O     13    1.7500  1.100      2.882086     -1.958565     -0.001093
   14   C     14    1.9255  1.100      4.044994     -2.271079      0.003122
   15   H     15    1.4430  1.100      4.773727     -1.543402      0.006578
   16   H     16    1.4430  1.100      4.310814     -3.266016      0.001874
   17   H     17    1.4430  1.100      1.149756      0.851617     -0.001422
   18  Br     18    2.0945  1.100      1.239299      1.866643      0.001120
 ------------------------------------------------------------------------------
 One-electron integrals computed using PRISM.
 NBasis=   302 RedAO= T EigKep=  5.27D-06  NBF=   302
 NBsUse=   301 1.00D-06 EigRej=  7.23D-07 NBFU=   301
 Initial guess from the checkpoint file:  "model_H1.chk"
 B after Tr=     0.000000    0.000000    0.000000
         Rot=    0.999989   -0.000212    0.000107    0.004611 Ang=  -0.53 deg.
 ExpMin= 3.50D-02 ExpMax= 4.40D+05 ExpMxC= 1.51D+04 IAcc=3 IRadAn=         5 AccDes= 0.00D+00
 Harris functional with IExCor= 1009 and IRadAn=       5 diagonalized for initial guess.
 HarFok:  IExCor= 1009 AccDes= 0.00D+00 IRadAn=         5 IDoV= 1 UseB2=F ITyADJ=14
 ICtDFT=  3500011 ScaDFX=  1.000000  1.000000  1.000000  1.000000
 FoFCou: FMM=F IPFlag=           0 FMFlag=      100000 FMFlg1=           0
         NFxFlg=           0 DoJE=T BraDBF=F KetDBF=T FulRan=T
         wScrn=  0.000000 ICntrl=       500 IOpCl=  0 I1Cent=   200000004 NGrid=           0
         NMat0=    1 NMatS0=      1 NMatT0=    0 NMatD0=    1 NMtDS0=    0 NMtDT0=    0
 Petite list used in FoFCou.
 Requested convergence on RMS density matrix=1.00D-08 within 128 cycles.
 Requested convergence on MAX density matrix=1.00D-06.
 Requested convergence on             energy=1.00D-06.
 No special actions if energy rises.
 Inv3:  Mode=1 IEnd=    11279163.
 Iteration    1 A*A^-1 deviation from unit magnitude is 4.00D-15 for   1929.
 Iteration    1 A*A^-1 deviation from orthogonality  is 3.24D-15 for   1925   1761.
 Iteration    1 A^-1*A deviation from unit magnitude is 4.22D-15 for   1926.
 Iteration    1 A^-1*A deviation from orthogonality  is 3.02D-15 for   1925   1761.
 Error on total polarization charges =  0.01463
 SCF Done:  E(RM062X) =  -3020.50294029     A.U. after   13 cycles
            NFock= 13  Conv=0.37D-08     -V/T= 2.0006
 DoSCS=F DFT=T ScalE2(SS,OS)=  1.000000  1.000000
 Range of M.O.s used for correlation:     1   301
 NBasis=   302 NAE=    51 NBE=    51 NFC=     0 NFV=     0
 NROrb=    301 NOA=    51 NOB=    51 NVA=   250 NVB=   250

 **** Warning!!: The largest alpha MO coefficient is  0.12602349D+03

 Symmetrizing basis deriv contribution to polar:
 IMax=3 JMax=2 DiffMx= 0.00D+00
 D1PCM: PCM CHGder 1st derivatives, ID1Alg=3 FixD1E=F DoIter=F DoCFld=F I1PDM=0.
 Calling FoFJK, ICntrl=      2127 FMM=F ISym2X=0 I1Cent= 0 IOpClX= 0 NMat=1 NMatS=1 NMatT=0.
 ***** Axes restored to original set *****
 -------------------------------------------------------------------
 Center     Atomic                   Forces (Hartrees/Bohr)
 Number     Number              X              Y              Z
 -------------------------------------------------------------------
      1        6          -0.040495094   -0.000395652   -0.043680267
      2        6          -0.032625203   -0.000016255    0.013458420
      3        6           0.008713630    0.000245325    0.014245828
      4        6           0.015838548   -0.000134354    0.009467892
      5        6           0.013941534    0.000242198   -0.002101135
      6        6          -0.018588323   -0.000002049   -0.022620235
      7        9           0.019635712    0.000331453    0.011604086
      8        1          -0.042043620    0.000004013    0.022395298
      9        1          -0.001312912   -0.000020817    0.046950126
     10        1           0.040874336    0.000005744    0.023544320
     11        1           0.040051807   -0.000021658   -0.024607817
     12        1          -0.001881912    0.000006002   -0.047442784
     13        8           0.006874064    0.000208154    0.003944266
     14        6           0.043994615    0.000051739    0.025705190
     15        1          -0.026331481    0.045014530   -0.015339800
     16        1          -0.026330078   -0.044989964   -0.015336504
     17        1          -0.095360603   -0.619035703   -0.055007076
     18       35           0.095044981    0.618507292    0.054820190
 -------------------------------------------------------------------
 Cartesian Forces:  Max     0.619035703 RMS     0.122975084
 -----------------------------------------------------------------------------------------------
                       Internal Coordinate Forces (Hartree/Bohr or radian)
  Cent   Atom   N1       Length/X         N2         Alpha/Y        N3         Beta/Z          J
 -----------------------------------------------------------------------------------------------
      1  C 
      2  C        1   0.032340(     1)
      3  C        2   0.082314(     2)      1   0.056712(    18)
      4  C        3   0.110016(     3)      2   0.183486(    19)      1   0.000658(    34)     0
      5  C        4   0.097722(     4)      3   0.209239(    20)      2   0.000454(    35)     0
      6  C        5   0.053719(     5)      4   0.125941(    21)      3  -0.000037(    36)     0
      7  F        1  -0.020374(     6)      2  -0.000678(    22)      3   0.001102(    37)     0
      8  H        2   0.047608(     7)      3   0.003155(    23)      4   0.000007(    38)     0
      9  H        3   0.046950(     8)      4   0.002545(    24)      5  -0.000035(    39)     0
     10  H        4   0.047170(     9)      5  -0.000091(    25)      6   0.000010(    40)     0
     11  H        5   0.046990(    10)      6  -0.002492(    26)      1  -0.000036(    41)     0
     12  H        6   0.047458(    11)      1  -0.002800(    27)      2   0.000010(    42)     0
     13  O        7   0.002066(    12)      1   0.000053(    28)      3  -0.000003(    43)     0
     14  C       13   0.009991(    13)      1   0.000100(    29)      2  -0.000000(    44)     0
     15  H       14   0.054221(    14)      1   0.007558(    30)      2   0.000120(    45)     0
     16  H       14   0.054198(    15)      1   0.007577(    31)      2  -0.000117(    46)     0
     17  H        7  -0.000457(    16)      1   0.000713(    32)      2   0.000106(    47)     0
     18  Br      17   0.628164(    17)      7  -0.001255(    33)      1   0.000031(    48)     0
 -----------------------------------------------------------------------------------------------
 Internal  Forces:  Max     0.628163709 RMS     0.106181617

 GradGradGradGradGradGradGradGradGradGradGradGradGradGradGradGradGradGrad
 Berny optimization.
 Search for a local minimum.
 Step number   2 out of a maximum of   27
 All quantities printed in internal units (Hartrees-Bohrs-Radians)
 Update second derivatives using D2CorN and points    1    2
 DE= -2.56D-01 DEPred=-2.42D-01 R= 1.06D+00
 TightC=F SS=  1.41D+00  RLast= 3.00D-01 DXNew= 5.0454D-01 9.0000D-01
 Trust test= 1.06D+00 RLast= 3.00D-01 DXMaxT set to 5.05D-01
 The second derivative matrix:
                          d1        d2        d3        d4        d5
           d1           0.89123
           d2          -0.03101   1.00308
           d3          -0.36692   0.40680   1.57190
           d4          -0.15565   0.01787   0.39370   0.99056
           d5           0.05456  -0.18350  -0.38275  -0.01694   0.95755
           d6           0.04568   0.04849   0.03083  -0.01555  -0.04434
           d7           0.00067  -0.00061  -0.00446  -0.00069   0.00140
           d8          -0.00085   0.00136   0.00081  -0.00335  -0.00122
           d9          -0.00113  -0.00362   0.00020   0.00188  -0.00002
           d10          0.00290  -0.00050  -0.00475  -0.00155   0.00063
           d11         -0.01085  -0.01009  -0.00054   0.00696   0.01091
           d12          0.00068   0.00066   0.00027  -0.00035  -0.00057
           d13          0.00001  -0.00037  -0.00056  -0.00042  -0.00007
           d14         -0.00035  -0.00319  -0.00469  -0.00382  -0.00117
           d15         -0.00035  -0.00319  -0.00469  -0.00382  -0.00117
           d16         -0.00061  -0.00072  -0.00030   0.00022   0.00033
           d17         -0.04384  -0.06995  -0.08233  -0.08202  -0.06168
                          d6        d7        d8        d9        d10
           d6           0.30756
           d7           0.00008   0.57440
           d8           0.00118  -0.00068   0.57365
           d9           0.00058  -0.00088  -0.00060   0.57285
           d10          0.00118  -0.00095  -0.00081  -0.00061   0.57366
           d11          0.00008  -0.00097  -0.00094  -0.00087  -0.00067
           d12         -0.00130  -0.00005   0.00000  -0.00002   0.00000
           d13          0.00005  -0.00011  -0.00011  -0.00011  -0.00011
           d14          0.00018  -0.00132  -0.00128  -0.00129  -0.00129
           d15          0.00018  -0.00131  -0.00128  -0.00129  -0.00128
           d16          0.00224   0.00003  -0.00008  -0.00006  -0.00008
           d17          0.02620  -0.05070  -0.05004  -0.05024  -0.05011
                          d11       d12       d13       d14       d15
           d11          0.57440
           d12         -0.00005   0.00436
           d13         -0.00011   0.00020   0.95641
           d14         -0.00131   0.00017   0.03171   0.57326
           d15         -0.00130   0.00011   0.03159  -0.00001   0.57318
           d16          0.00003  -0.00061  -0.00004  -0.00006  -0.00006
           d17         -0.05041  -0.00276  -0.00790  -0.05794  -0.05792
                          d16       d17
           d16          0.00759
           d17          0.00478   2.82714
 ITU=  1  0
 Linear search step of   0.600 exceeds DXMaxT=   0.505 but not scaled.
 Quartic linear search produced a step of  2.00000.
 Variable       Old X    -DE/DX   Delta X   Delta X   Delta X     New X
                                 (Linear)    (Quad)   (Total)
    d1        2.50285   0.03234   0.09242   0.00000   0.09242   2.59527
    d2        2.51894   0.08231   0.12460   0.00000   0.12460   2.64354
    d3        2.52613   0.11002   0.13898   0.00000   0.13898   2.66511
    d4        2.52977   0.09772   0.14626   0.00000   0.14626   2.67603
    d5        2.51909   0.05372   0.12490   0.00000   0.12490   2.64399
    d6        2.61818  -0.02037  -0.05487   0.00000  -0.05487   2.56331
    d7        1.93946   0.04761   0.09948   0.00000   0.09948   2.03894
    d8        1.93882   0.04695   0.09818   0.00000   0.09818   2.03699
    d9        1.93901   0.04717   0.09858   0.00000   0.09858   2.03759
   d10        1.93889   0.04699   0.09833   0.00000   0.09833   2.03722
   d11        1.93918   0.04746   0.09891   0.00000   0.09891   2.03810
   d12        5.29414   0.00207   0.00582   0.00000   0.00582   5.29996
   d13        2.27556   0.00999   0.01578   0.00000   0.01578   2.29134
   d14        1.94612   0.05422   0.11279   0.00000   0.11279   2.05891
   d15        1.94611   0.05420   0.11276   0.00000   0.11276   2.05887
   d16        4.34496  -0.00046  -0.00283   0.00000  -0.00283   4.34213
   d17        1.92558   0.62816   0.44965   0.00000   0.44965   2.37523
         Item               Value     Threshold  Converged?
 Maximum Force            0.628164     0.000450     NO 
 RMS     Force            0.161701     0.000300     NO 
 Maximum Displacement     0.449648     0.001800     NO 
 RMS     Displacement     0.145521     0.001200     NO 
 Predicted change in Energy=-5.588904D-02
 GradGradGradGradGradGradGradGradGradGradGradGradGradGradGradGradGradGrad

 ---------------------------------------------------------------------------------------------------
                            Z-MATRIX (ANGSTROMS AND DEGREES)
   CD    Cent   Atom    N1       Length/X        N2       Alpha/Y        N3        Beta/Z          J
 ---------------------------------------------------------------------------------------------------
      1      1  C 
      2      2  C        1   1.373360(     1)
      3      3  C        2   1.398902(     2)      1  120.000(    18)
      4      4  C        3   1.410318(     3)      2  120.000(    19)      1    0.000(    34)      0
      5      5  C        4   1.416095(     4)      3  120.000(    20)      2    0.000(    35)      0
      6      6  C        5   1.399141(     5)      4  120.000(    21)      3    0.000(    36)      0
      7      7  F        1   1.356446(     6)      2  120.000(    22)      3  180.000(    37)      0
      8      8  H        2   1.078962(     7)      3  120.000(    23)      4  180.000(    38)      0
      9      9  H        3   1.077930(     8)      4  120.000(    24)      5  180.000(    39)      0
     10     10  H        4   1.078247(     9)      5  120.000(    25)      6  180.000(    40)      0
     11     11  H        5   1.078051(    10)      6  120.000(    26)      1  180.000(    41)      0
     12     12  H        6   1.078515(    11)      1  120.000(    27)      2  180.000(    42)      0
     13     13  O        7   2.804616(    12)      1  179.900(    28)      3  180.000(    43)      0
     14     14  C       13   1.212524(    13)      1  179.900(    29)      2  180.000(    44)      0
     15     15  H       14   1.089531(    14)      1  120.000(    30)      2   90.000(    45)      0
     16     16  H       14   1.089507(    15)      1  120.000(    31)      2  -90.000(    46)      0
     17     17  H        7   2.297756(    16)      1  100.000(    32)      2   90.000(    47)      0
     18     18  Br      17   1.256915(    17)      7  160.000(    33)      1    0.000(    48)      0
 ---------------------------------------------------------------------------------------------------
                         Z-Matrix orientation:                         
 ---------------------------------------------------------------------
 Center     Atomic      Atomic             Coordinates (Angstroms)
 Number     Number       Type             X           Y           Z
 ---------------------------------------------------------------------
      1          6           0        0.000000    0.000000    0.000000
      2          6           0        0.000000    0.000000    1.373360
      3          6           0        1.211485    0.000000    2.072811
      4          6           0        2.432856    0.000000    1.367652
      5          6           0        2.432856    0.000000   -0.048443
      6          6           0        1.221164    0.000000   -0.748014
      7          9           0       -1.174717   -0.000000   -0.678223
      8          1           0       -0.934408   -0.000000    1.912840
      9          1           0        1.211485   -0.000000    3.150741
     10          1           0        3.366645   -0.000000    1.906775
     11          1           0        3.366475   -0.000000   -0.587468
     12          1           0        1.193135   -0.000000   -1.826164
     13          8           0       -3.601135   -0.000000   -2.084768
     14          6           0       -4.649435   -0.000000   -2.694096
     15          1           0       -5.120788    0.943561   -2.967219
     16          1           0       -5.120778   -0.943541   -2.967213
     17          1           0       -1.520262    2.262847   -0.877724
     18         35           0       -1.331242    3.500667   -0.768593
 ---------------------------------------------------------------------
                    Distance matrix (angstroms):
                    1          2          3          4          5
     1  C    0.000000
     2  C    1.373360   0.000000
     3  C    2.400883   1.398902   0.000000
     4  C    2.790924   2.432862   1.410318   0.000000
     5  C    2.433338   2.817855   2.447747   1.416095   0.000000
     6  C    1.432049   2.447747   2.820841   2.438081   1.399141
     7  F    1.356446   2.364096   3.641723   4.147310   3.662131
     8  H    2.128868   1.078962   2.151847   3.411114   3.896806
     9  H    3.375628   2.150995   1.077930   2.161285   3.424401
    10  H    3.869120   3.408640   2.161546   1.078247   2.166758
    11  H    3.417349   3.895895   3.423604   2.166596   1.078051
    12  H    2.181386   3.414751   3.899018   3.425984   2.167302
    13  O    4.161061   4.992676   6.359777   6.951852   6.368332
    14  C    5.373584   6.177495   7.554719   8.164352   7.560312
    15  H    5.993093   6.778893   8.147999   8.760077   8.152735
    16  H    5.993078   6.778879   8.147985   8.760063   8.152721
    17  H    2.863926   3.535400   4.613954   5.078319   4.629830
    18  Br   3.823299   4.314492   5.176264   5.566565   5.190541
                    6          7          8          9         10
     6  C    0.000000
     7  F    2.396897   0.000000
     8  H    3.424418   2.602183   0.000000
     9  H    3.898766   4.511643   2.477348   0.000000
    10  H    3.413355   5.225531   4.301057   2.488406   0.000000
    11  H    2.151310   4.542098   4.974851   4.314880   2.494244
    12  H    1.078515   2.631443   4.301929   4.976939   4.319604
    13  O    5.004146   2.804616   4.805445   7.111389   8.030091
    14  C    6.184753   4.017140   5.918217   8.277228   9.242594
    15  H    6.784949   4.658464   6.498543   8.855361   9.832733
    16  H    6.784934   4.658448   6.498529   8.855347   9.832719
    17  H    3.557066   2.297756   3.640185   5.367629   6.062653
    18  Br   4.332421   3.505330   4.427441   5.837920   6.440684
                   11         12         13         14         15
    11  H    0.000000
    12  H    2.501554   0.000000
    13  O    7.126674   4.801239   0.000000
    14  C    8.288106   5.906685   1.212524   0.000000
    15  H    8.864939   6.485209   1.994586   1.089531   0.000000
    16  H    8.864926   6.485195   1.994566   1.089507   1.887102
    17  H    5.393044   3.658215   3.302645   4.267483   4.366955
    18  Br   5.861401   4.443603   4.374860   5.193519   5.072810
                   16         17         18
    16  H    0.000000
    17  H    5.254579   0.000000
    18  Br   6.240632   1.256915   0.000000
 Stoichiometry    C7H8BrFO
 Framework group  C1[X(C7H8BrFO)]
 Deg. of freedom    48
 Full point group                 C1      NOp   1
 Largest Abelian subgroup         C1      NOp   1
 Largest concise Abelian subgroup C1      NOp   1
                         Standard orientation:                         
 ---------------------------------------------------------------------
 Center     Atomic      Atomic             Coordinates (Angstroms)
 Number     Number       Type             X           Y           Z
 ---------------------------------------------------------------------
      1          6           0       -1.159283   -0.927119   -0.022480
      2          6           0       -1.810110   -0.723393   -1.214552
      3          6           0       -3.148964   -0.317970   -1.220122
      4          6           0       -3.830401   -0.118448   -0.001586
      5          6           0       -3.159321   -0.328514    1.227580
      6          6           0       -1.820239   -0.734006    1.233151
      7          9           0        0.138937   -1.320238   -0.017079
      8          1           0       -1.288777   -0.876037   -2.146792
      9          1           0       -3.659789   -0.158068   -2.155762
     10          1           0       -4.862363    0.194044   -0.005879
     11          1           0       -3.680213   -0.175998    2.159032
     12          1           0       -1.286002   -0.900920    2.155065
     13          8           0        2.823133   -2.133076   -0.001018
     14          6           0        3.983585   -2.484496    0.007353
     15          1           0        4.778398   -1.739322    0.015424
     16          1           0        4.231518   -3.545416    0.005330
     17          1           0        1.176568    0.729839   -0.003387
     18         35           0        1.326387    1.977780    0.002365
 ---------------------------------------------------------------------
 Rotational constants (GHZ):           0.8187149           0.4370373           0.3173647
 Standard basis: 6-311++G(d,p) (5D, 7F)
 There are   314 symmetry adapted cartesian basis functions of A   symmetry.
 There are   302 symmetry adapted basis functions of A   symmetry.
[...]
     17          1           0        0.907385    0.730025   -0.002615
     18         35           0        0.900629    2.155458    0.001150
 ---------------------------------------------------------------------
 Rotational constants (GHZ):           0.7724290           0.3854040           0.2824712

 **********************************************************************

            Population analysis using the SCF Density.

 **********************************************************************

 Orbital symmetries:
       Occupied  (A) (A) (A) (A) (A) (A) (A) (A) (A) (A) (A) (A)
                 (A) (A) (A) (A) (A) (A) (A) (A) (A) (A) (A) (A)
                 (A) (A) (A) (A) (A) (A) (A) (A) (A) (A) (A) (A)
                 (A) (A) (A) (A) (A) (A) (A) (A) (A) (A) (A) (A)
                 (A) (A) (A)
       Virtual   (A) (A) (A) (A) (A) (A) (A) (A) (A) (A) (A) (A)
                 (A) (A) (A) (A) (A) (A) (A) (A) (A) (A) (A) (A)
                 (A) (A) (A) (A) (A) (A) (A) (A) (A) (A) (A) (A)
                 (A) (A) (A) (A) (A) (A) (A) (A) (A) (A) (A) (A)
                 (A) (A) (A) (A) (A) (A) (A) (A) (A) (A) (A) (A)
                 (A) (A) (A) (A) (A) (A) (A) (A) (A) (A) (A) (A)
                 (A) (A) (A) (A) (A) (A) (A) (A) (A) (A) (A) (A)
                 (A) (A) (A) (A) (A) (A) (A) (A) (A) (A) (A) (A)
                 (A) (A) (A) (A) (A) (A) (A) (A) (A) (A) (A) (A)
                 (A) (A) (A) (A) (A) (A) (A) (A) (A) (A) (A) (A)
                 (A) (A) (A) (A) (A) (A) (A) (A) (A) (A) (A) (A)
                 (A) (A) (A) (A) (A) (A) (A) (A) (A) (A) (A) (A)
                 (A) (A) (A) (A) (A) (A) (A) (A) (A) (A) (A) (A)
                 (A) (A) (A) (A) (A) (A) (A) (A) (A) (A) (A) (A)
                 (A) (A) (A) (A) (A) (A) (A) (A) (A) (A) (A) (A)
                 (A) (A) (A) (A) (A) (A) (A) (A) (A) (A) (A) (A)
                 (A) (A) (A) (A) (A) (A) (A) (A) (A) (A) (A) (A)
                 (A) (A) (A) (A) (A) (A) (A) (A) (A) (A) (A) (A)
                 (A) (A) (A) (A) (A) (A) (A) (A) (A) (A) (A) (A)
                 (A) (A) (A) (A) (A) (A) (A) (A) (A) (A) (A) (A)
                 (A) (A) (A) (A) (A) (A) (A) (A) (A) (A) (A)
 The electronic state is 1-A.
 Alpha  occ. eigenvalues -- -485.34216 -63.33441 -57.16166 -57.15941 -57.15940
 Alpha  occ. eigenvalues --  -25.27267 -19.64638 -10.64101 -10.63944 -10.56117
 Alpha  occ. eigenvalues --  -10.56042 -10.55872 -10.55790 -10.55277  -9.02154
 Alpha  occ. eigenvalues --   -6.84894  -6.83959  -6.83957  -2.88074  -2.87706
 Alpha  occ. eigenvalues --   -2.87703  -2.86894  -2.86894  -1.39038  -1.19315
 Alpha  occ. eigenvalues --   -0.98133  -0.88126  -0.86448  -0.85968  -0.72295
 Alpha  occ. eigenvalues --   -0.71952  -0.71498  -0.64192  -0.59236  -0.58744
 Alpha  occ. eigenvalues --   -0.58342  -0.58147  -0.54050  -0.52482  -0.50716
 Alpha  occ. eigenvalues --   -0.49719  -0.49516  -0.47844  -0.44961  -0.43970
 Alpha  occ. eigenvalues --   -0.41755  -0.36772  -0.36744  -0.34943  -0.32619
 Alpha  occ. eigenvalues --   -0.31624
 Alpha virt. eigenvalues --   -0.00781  -0.00292   0.00286   0.00746   0.01191
 Alpha virt. eigenvalues --    0.01431   0.01813   0.02388   0.03335   0.03402
 Alpha virt. eigenvalues --    0.03858   0.05324   0.05775   0.06355   0.06527
 Alpha virt. eigenvalues --    0.06922   0.07528   0.07949   0.09294   0.10212
 Alpha virt. eigenvalues --    0.10960   0.11053   0.11297   0.12734   0.13029
 Alpha virt. eigenvalues --    0.13195   0.13590   0.13640   0.14177   0.14397
 Alpha virt. eigenvalues --    0.14754   0.15437   0.15664   0.15768   0.16384
 Alpha virt. eigenvalues --    0.16640   0.16927   0.17751   0.18314   0.19412
 Alpha virt. eigenvalues --    0.20455   0.21318   0.21981   0.22056   0.22867
 Alpha virt. eigenvalues --    0.24836   0.25088   0.26412   0.28001   0.29665
 Alpha virt. eigenvalues --    0.29993   0.30335   0.31248   0.32227   0.32700
 Alpha virt. eigenvalues --    0.32766   0.33946   0.36589   0.38186   0.38429
 Alpha virt. eigenvalues --    0.40047   0.40646   0.41100   0.41889   0.44399
 Alpha virt. eigenvalues --    0.44984   0.45058   0.47309   0.48982   0.51125
 Alpha virt. eigenvalues --    0.52420   0.52749   0.54056   0.56115   0.56940
 Alpha virt. eigenvalues --    0.57212   0.57387   0.58360   0.59464   0.59702
 Alpha virt. eigenvalues --    0.60953   0.62624   0.63249   0.63529   0.64096
 Alpha virt. eigenvalues --    0.65300   0.66317   0.66957   0.68922   0.70148
 Alpha virt. eigenvalues --    0.70215   0.71563   0.73223   0.75390   0.76755
 Alpha virt. eigenvalues --    0.77070   0.80622   0.81370   0.81806   0.85115
 Alpha virt. eigenvalues --    0.87989   0.88349   0.90611   0.91520   0.93697
 Alpha virt. eigenvalues --    0.93973   0.94942   0.95364   0.97246   1.03248
 Alpha virt. eigenvalues --    1.04402   1.05021   1.05137   1.06610   1.08715
 Alpha virt. eigenvalues --    1.12147   1.12341   1.14017   1.15443   1.18064
 Alpha virt. eigenvalues --    1.21866   1.23382   1.32141   1.33665   1.39558
 Alpha virt. eigenvalues --    1.44819   1.45759   1.45892   1.48883   1.48928
 Alpha virt. eigenvalues --    1.49796   1.51469   1.55081   1.55640   1.58980
 Alpha virt. eigenvalues --    1.59987   1.60471   1.60894   1.62417   1.66758
 Alpha virt. eigenvalues --    1.68324   1.68815   1.70287   1.72810   1.77059
 Alpha virt. eigenvalues --    1.77353   1.78018   1.79924   1.86016   1.86280
 Alpha virt. eigenvalues --    1.90229   1.91061   1.94486   1.94958   1.96137
 Alpha virt. eigenvalues --    1.97638   1.99029   2.00920   2.02482   2.04190
 Alpha virt. eigenvalues --    2.05713   2.06323   2.06546   2.09147   2.10106
 Alpha virt. eigenvalues --    2.10652   2.17218   2.19254   2.30295   2.30580
 Alpha virt. eigenvalues --    2.35162   2.43751   2.43899   2.47049   2.48663
 Alpha virt. eigenvalues --    2.50626   2.52335   2.52769   2.60190   2.64682
 Alpha virt. eigenvalues --    2.66071   2.69413   2.71902   2.72732   2.73031
 Alpha virt. eigenvalues --    2.73533   2.76233   2.76798   2.79559   2.84379
 Alpha virt. eigenvalues --    2.84888   2.85530   2.88327   2.93989   2.94220
 Alpha virt. eigenvalues --    2.94233   2.97354   2.98102   3.13548   3.18313
 Alpha virt. eigenvalues --    3.24724   3.38496   3.39255   3.42260   3.47827
 Alpha virt. eigenvalues --    3.52920   3.55372   3.56108   3.66241   3.74379
 Alpha virt. eigenvalues --    3.78745   3.86533   3.93704   3.95176   4.02843
 Alpha virt. eigenvalues --    4.06185   4.08947   4.16343   4.19052   4.20231
 Alpha virt. eigenvalues --    4.27894   4.28142   4.32749   4.35113   4.50398
 Alpha virt. eigenvalues --    4.85617   4.94515   5.09511   5.20806   5.77165
 Alpha virt. eigenvalues --    6.50064   6.58392   6.82022   6.88098   7.62538
 Alpha virt. eigenvalues --    7.64987   7.66652  23.66157  23.99137  24.00920
 Alpha virt. eigenvalues --   24.05023  24.15353  24.16852  24.27432  48.34831
 Alpha virt. eigenvalues --   50.03509  66.94403 290.77255 290.80105 290.83620
 Alpha virt. eigenvalues -- 1020.90327
          Condensed to atoms (all electrons):
               1          2          3          4          5          6
     1  C   14.427418  -6.068796   3.539119  -3.486432   3.468586  -5.462805
     2  C   -6.068796  13.543483  -3.380854   2.894918  -3.262393   1.711213
     3  C    3.539119  -3.380854   8.930703  -2.289727   2.657450  -3.252241
     4  C   -3.486432   2.894918  -2.289727   8.059985  -2.205927   2.759694
     5  C    3.468586  -3.262393   2.657450  -2.205927   8.717228  -3.170172
     6  C   -5.462805   1.711213  -3.252241   2.759694  -3.170172  12.878189
     7  F    0.838019  -0.509628   0.124205  -0.082749   0.122377  -0.492863
     8  H   -0.297231   0.675064  -0.137310   0.085330  -0.070194   0.050115
     9  H    0.059448  -0.049848   0.354268  -0.038517   0.001285   0.005683
    10  H   -0.012022   0.004078  -0.013560   0.361986  -0.012739   0.004724
    11  H    0.050437   0.008433  -0.001586  -0.033173   0.350513  -0.043372
    12  H   -0.280774   0.053639  -0.072202   0.082000  -0.133299   0.656400
    13  O    0.010053  -0.002767  -0.000531  -0.000043  -0.000509  -0.003010
    14  C    0.003443  -0.002583   0.000639  -0.000251   0.000634  -0.002259
    15  H   -0.000417   0.000252  -0.000085   0.000045  -0.000085   0.000228
    16  H   -0.000413   0.000141   0.000017  -0.000003   0.000015   0.000128
    17  H   -0.144681   0.075328  -0.026792   0.030880  -0.026829   0.073550
    18  Br   0.322555  -0.178070   0.066296  -0.062275   0.065409  -0.169680
               7          8          9         10         11         12
     1  C    0.838019  -0.297231   0.059448  -0.012022   0.050437  -0.280774
     2  C   -0.509628   0.675064  -0.049848   0.004078   0.008433   0.053639
     3  C    0.124205  -0.137310   0.354268  -0.013560  -0.001586  -0.072202
     4  C   -0.082749   0.085330  -0.038517   0.361986  -0.033173   0.082000
     5  C    0.122377  -0.070194   0.001285  -0.012739   0.350513  -0.133299
     6  C   -0.492863   0.050115   0.005683   0.004724  -0.043372   0.656400
     7  F    9.197793  -0.025496   0.001548  -0.000738   0.001381  -0.025483
     8  H   -0.025496   0.458713  -0.003564   0.001344   0.000377   0.003066
     9  H    0.001548  -0.003564   0.429327   0.001553  -0.000479   0.000298
    10  H   -0.000738   0.001344   0.001553   0.434324   0.001757   0.001279
    11  H    0.001381   0.000377  -0.000479   0.001757   0.428804  -0.002686
    12  H   -0.025483   0.003066   0.000298   0.001279  -0.002686   0.456659
    13  O    0.003247   0.000663  -0.000006  -0.000001  -0.000006   0.000700
    14  C    0.000148  -0.000375   0.000007  -0.000002   0.000006  -0.000383
    15  H   -0.000146   0.000019  -0.000002   0.000000  -0.000002   0.000019
    16  H   -0.000062  -0.000007   0.000001  -0.000000   0.000001  -0.000008
    17  H    0.003913   0.005205  -0.000464   0.000262  -0.000399   0.005250
    18  Br  -0.009364  -0.007768   0.000761  -0.000502   0.000646  -0.007721
              13         14         15         16         17         18
     1  C    0.010053   0.003443  -0.000417  -0.000413  -0.144681   0.322555
     2  C   -0.002767  -0.002583   0.000252   0.000141   0.075328  -0.178070
     3  C   -0.000531   0.000639  -0.000085   0.000017  -0.026792   0.066296
     4  C   -0.000043  -0.000251   0.000045  -0.000003   0.030880  -0.062275
     5  C   -0.000509   0.000634  -0.000085   0.000015  -0.026829   0.065409
     6  C   -0.003010  -0.002259   0.000228   0.000128   0.073550  -0.169680
     7  F    0.003247   0.000148  -0.000146  -0.000062   0.003913  -0.009364
     8  H    0.000663  -0.000375   0.000019  -0.000007   0.005205  -0.007768
     9  H   -0.000006   0.000007  -0.000002   0.000001  -0.000464   0.000761
    10  H   -0.000001  -0.000002   0.000000  -0.000000   0.000262  -0.000502
    11  H   -0.000006   0.000006  -0.000002   0.000001  -0.000399   0.000646
    12  H    0.000700  -0.000383   0.000019  -0.000008   0.005250  -0.007721
    13  O    8.140096   0.315060  -0.079577  -0.082847   0.008529  -0.004598
    14  C    0.315060   4.852158   0.395725   0.400234  -0.000786  -0.000117
    15  H   -0.079577   0.395725   0.643853  -0.097986   0.000321   0.000074
    16  H   -0.082847   0.400234  -0.097986   0.644410   0.000173  -0.000008
    17  H    0.008529  -0.000786   0.000321   0.000173   0.638961   0.231105
    18  Br  -0.004598  -0.000117   0.000074  -0.000008   0.231105  34.877909
 Mulliken charges:
               1
     1  C   -0.965508
     2  C    0.488389
     3  C   -0.497809
     4  C   -0.075742
     5  C   -0.501351
     6  C    0.456478
     7  F   -0.146104
     8  H    0.262050
     9  H    0.238701
    10  H    0.228256
    11  H    0.239346
    12  H    0.263246
    13  O   -0.304453
    14  C    0.038700
    15  H    0.137762
    16  H    0.136216
    17  H    0.126474
    18  Br  -0.124651
 Sum of Mulliken charges =  -0.00000
 Mulliken charges with hydrogens summed into heavy atoms:
               1
     1  C   -0.965508
     2  C    0.750439
     3  C   -0.259108
     4  C    0.152515
     5  C   -0.262005
     6  C    0.719723
     7  F   -0.146104
    13  O   -0.304453
    14  C    0.312678
    18  Br   0.001822
 APT charges:
               1
     1  C   -0.648915
     2  C   -0.338960
     3  C   -0.549364
     4  C   -0.640995
     5  C   -0.557078
     6  C   -0.355594
     7  F   -0.140648
     8  H    0.366795
     9  H    0.768520
    10  H    0.945742
    11  H    0.769813
    12  H    0.360923
    13  O   -1.104923
    14  C   -0.148819
    15  H    0.465177
    16  H    0.810759
    17  H   -0.022317
    18  Br   0.019885
 Sum of APT charges =  -0.00000
 APT charges with hydrogens summed into heavy atoms:
               1
     1  C   -0.648915
     2  C    0.027835
     3  C    0.219156
     4  C    0.304747
     5  C    0.212734
     6  C    0.005328
     7  F   -0.140648
    13  O   -1.104923
    14  C    1.127117
    18  Br  -0.002432
 Electronic spatial extent (au):  <R**2>=           3665.2115
 Charge=              0.0000 electrons
 Dipole moment (field-independent basis, Debye):
    X=              0.6790    Y=             -1.7117    Z=             -0.0109  Tot=              1.8415
 Quadrupole moment (field-independent basis, Debye-Ang):
   XX=            -36.1062   YY=            -75.0762   ZZ=            -64.9802
   XY=             -8.7026   XZ=              0.1457   YZ=             -0.0419
 Traceless Quadrupole moment (field-independent basis, Debye-Ang):
   XX=             22.6147   YY=            -16.3554   ZZ=             -6.2593
   XY=             -8.7026   XZ=              0.1457   YZ=             -0.0419
 Octapole moment (field-independent basis, Debye-Ang**2):
  XXX=            179.7748  YYY=             53.7102  ZZZ=             -0.1468  XYY=             51.1653
  XXY=            -46.9130  XXZ=             -0.2344  XZZ=              1.1818  YZZ=              9.4038
  YYZ=              0.0004  XYZ=             -0.0796
 Hexadecapole moment (field-independent basis, Debye-Ang**3):
 XXXX=          -1893.9976 YYYY=          -1034.9680 ZZZZ=           -289.5220 XXXY=           -378.1500
 XXXZ=              1.5384 YYYX=            -77.9365 YYYZ=              0.4118 ZZZX=              0.5719
 ZZZY=              0.0120 XXYY=           -594.5739 XXZZ=           -534.1811 YYZZ=           -241.1448
 XXYZ=             -0.0280 YYXZ=              0.3606 ZZXY=             13.2530
 N-N= 6.564962091707D+02 E-N=-8.513321182053D+03  KE= 3.016087765502D+03
  Exact polarizability:   0.000   0.000   0.000   0.000   0.000   0.000
 Approx polarizability: 143.602  -8.160  95.079   0.251  -0.145 126.521
 Rotating derivatives to standard orientation.
 ***** Axes restored to original set *****
 -------------------------------------------------------------------
 Center     Atomic                   Forces (Hartrees/Bohr)
 Number     Number              X              Y              Z
 -------------------------------------------------------------------
      1        6           0.015663617   -0.001304189   -0.001722029
      2        6          -0.016305501    0.000257140    0.005355910
      3        6           0.005726998    0.000125501    0.000487584
      4        6           0.004361127    0.000000485   -0.003884620
      5        6          -0.007033115    0.000126314    0.002248754
      6        6           0.001502624    0.000258604   -0.000819338
      7        9          -0.000434809    0.000582037    0.001537672
      8        1          -0.000956946   -0.000026088   -0.001657474
      9        1          -0.001174807    0.000004123    0.000000009
     10        1           0.000173992   -0.000018834   -0.000301341
     11        1          -0.000608558    0.000005273   -0.001054068
     12        1          -0.000579170   -0.000023328    0.000011419
     13        8           0.000030401    0.000064451   -0.000052351
     14        6           0.007216048    0.000008812    0.004401465
     15        1          -0.003616848   -0.002434921   -0.002170246
     16        1          -0.003629274    0.002443769   -0.002179362
     17        1          -0.000630581   -0.000008763   -0.000377571
     18       35           0.000294799   -0.000060385    0.000175588
 -------------------------------------------------------------------
 Cartesian Forces:  Max     0.016305501 RMS     0.003846437
 -----------------------------------------------------------------------------------------------
                       Internal Coordinate Forces (Hartree/Bohr or radian)
  Cent   Atom   N1       Length/X         N2         Alpha/Y        N3         Beta/Z          J
 -----------------------------------------------------------------------------------------------
      1  C 
      2  C        1   0.000000(     1)
      3  C        2   0.000000(     2)      1  -0.035412(    18)
      4  C        3   0.000000(     3)      2  -0.028165(    19)      1   0.001689(    34)     0
      5  C        4  -0.000000(     4)      3  -0.017890(    20)      2   0.001423(    35)     0
      6  C        5  -0.000000(     5)      4   0.001157(    21)      3   0.000582(    36)     0
      7  F        1  -0.000001(     6)      2  -0.003932(    22)      3   0.001306(    37)     0
      8  H        2   0.000000(     7)      3   0.003921(    23)      4  -0.000046(    38)     0
      9  H        3   0.000000(     8)      4   0.002404(    24)      5   0.000007(    39)     0
     10  H        4   0.000000(     9)      5  -0.000712(    25)      6  -0.000033(    40)     0
     11  H        5   0.000000(    10)      6  -0.002490(    26)      1   0.000009(    41)     0
     12  H        6   0.000000(    11)      1  -0.001186(    27)      2  -0.000041(    42)     0
     13  O        7  -0.000000(    12)      1  -0.000003(    28)      3  -0.000001(    43)     0
     14  C       13  -0.000000(    13)      1   0.000110(    29)      2  -0.000000(    44)     0
     15  H       14   0.000000(    14)      1   0.010128(    30)      2   0.000116(    45)     0
     16  H       14   0.000000(    15)      1   0.010165(    31)      2  -0.000119(    46)     0
     17  H        7  -0.000000(    16)      1   0.000660(    32)      2   0.000015(    47)     0
     18  Br      17   0.000000(    17)      7  -0.000938(    33)      1  -0.000004(    48)     0
 -----------------------------------------------------------------------------------------------
 Internal  Forces:  Max     0.035412465 RMS     0.007398764
 1\1\GINC-R820\POpt\RM062X\6-311++G(d,p)\C7H8Br1F1O1\ZJXU\01-Apr-2024\1
 \\# m062x 6-311++G(d,p) opt=(z-matrix,recalc=5) scrf=(solvent=water)\\
 test\\0,1\C\C,1,d1\C,2,d2,1,120.\C,3,d3,2,120.,1,0.,0\C,4,d4,3,120.,2,
 0.,0\C,5,d5,4,120.,3,0.,0\F,1,d6,2,120.,3,180.,0\H,2,d7,3,120.,4,180.,
 0\H,3,d8,4,120.,5,180.,0\H,4,d9,5,120.,6,180.,0\H,5,d10,6,120.,1,180.,
 0\H,6,d11,1,120.,2,180.,0\O,7,d12,1,179.9,3,180.,0\C,13,d13,1,179.9,2,
 180.,0\H,14,d14,1,120.,2,90.,0\H,14,d15,1,120.,2,-90.,0\H,7,d16,1,100.
 ,2,90.,0\Br,17,d17,7,160.,1,0.,0\\d1=1.37924106\d2=1.38389719\d3=1.388
 00172\d4=1.39570029\d5=1.3990542\d6=1.35335669\d7=1.08400788\d8=1.0827
 4104\d9=1.08305747\d10=1.08267776\d11=1.08329417\d12=3.63090072\d13=1.
 2048281\d14=1.10054442\d15=1.10055317\d16=2.1256763\d17=1.42545416\\Ve
 rsion=ES64L-G16RevB.01\State=1-A\HF=-3020.7100569\RMSD=5.721e-09\RMSF=
 3.846e-03\Dipole=-0.3278581,-0.6186081,-0.1863339\Polar=0.,0.,0.,0.,0.
 ,0.\Quadrupole=12.3372342,-13.4877279,1.1504937,1.1093738,9.9312984,0.
 6283697\PG=C01 [X(C7H8Br1F1O1)]\\@


 "I COULD HAVE DONE IT IN A MUCH MORE COMPLICATED WAY"
 SAID THE RED QUEEN, IMMENSELY PROUD.

                                      -- LEWIS CARROLL
 Job cpu time:       0 days  6 hours 49 minutes 22.9 seconds.
 Elapsed time:       0 days  1 hours 42 minutes 26.4 seconds.
 File lengths (MBytes):  RWF=    299 Int=      0 D2E=      0 Chk=     18 Scr=      1
 Normal termination of Gaussian 16 at Mon Apr  1 15:07:46 2024.
