 Entering Gaussian System, Link 0=g16
 Input=model_H3.gjf
 Output=model_H3.log
 Initial command:
 /home/zjxu/prog/g16/l1.exe "/home/zjxu/zjhan/5_model/HBr/water/Gau-44360.inp" -scrdir="/home/zjxu/zjhan/5_model/HBr/water/"
 Entering Link 1 = /home/zjxu/prog/g16/l1.exe PID=     44361.
  
 Copyright (c) 1988-2017, Gaussian, Inc.  All Rights Reserved.
  
 This is part of the Gaussian(R) 16 program.  It is based on
 the Gaussian(R) 09 system (copyright 2009, Gaussian, Inc.),
 the Gaussian(R) 03 system (copyright 2003, Gaussian, Inc.),
 the Gaussian(R) 98 system (copyright 1998, Gaussian, Inc.),
 the Gaussian(R) 94 system (copyright 1995, Gaussian, Inc.),
 the Gaussian 92(TM) system (copyright 1992, Gaussian, Inc.),
 the Gaussian 90(TM) system (copyright 1990, Gaussian, Inc.),
 the Gaussian 88(TM) system (copyright 1988, Gaussian, Inc.),
 the Gaussian 86(TM) system (copyright 1986, Carnegie Mellon
 University), and the Gaussian 82(TM) system (copyright 1983,
 Carnegie Mellon University). Gaussian is a federally registered
 trademark of Gaussian, Inc.
  
 This software contains proprietary and confidential information,
 including trade secrets, belonging to Gaussian, Inc.
  
 This software is provided under written license and may be
 used, copied, transmitted, or stored only in accord with that
 written license.
  
 The following legend is applicable only to US Government
 contracts under FAR:
  
                    RESTRICTED RIGHTS LEGEND
  
 Use, reproduction and disclosure by the US Government is
 subject to restrictions as set forth in subparagraphs (a)
 and (c) of the Commercial Computer Software - Restricted
 Rights clause in FAR 52.227-19.
  
 Gaussian, Inc.
 340 Quinnipiac St., Bldg. 40, Wallingford CT 06492
  
  
 ---------------------------------------------------------------
 Warning -- This program may not be used in any manner that
 competes with the business of Gaussian, Inc. or will provide
 assistance to any competitor of Gaussian, Inc.  The licensee
 of this program is prohibited from giving any competitor of
 Gaussian, Inc. access to this program.  By using this program,
 the user acknowledges that Gaussian, Inc. is engaged in the
 business of creating and licensing software in the field of
 computational chemistry and represents and warrants to the
 licensee that it is not a competitor of Gaussian, Inc. and that
 it will not use this program in any manner prohibited above.
 ---------------------------------------------------------------
  

 Cite this work as:
 Gaussian 16, Revision B.01,
 M. J. Frisch, G. W. Trucks, H. B. Schlegel, G. E. Scuseria, 
 M. A. Robb, J. R. Cheeseman, G. Scalmani, V. Barone, 
 G. A. Petersson, H. Nakatsuji, X. Li, M. Caricato, A. V. Marenich, 
 J. Bloino, B. G. Janesko, R. Gomperts, B. Mennucci, H. P. Hratchian, 
 J. V. Ortiz, A. F. Izmaylov, J. L. Sonnenberg, D. Williams-Young, 
 F. Ding, F. Lipparini, F. Egidi, J. Goings, B. Peng, A. Petrone, 
 T. Henderson, D. Ranasinghe, V. G. Zakrzewski, J. Gao, N. Rega, 
 G. Zheng, W. Liang, M. Hada, M. Ehara, K. Toyota, R. Fukuda, 
 J. Hasegawa, M. Ishida, T. Nakajima, Y. Honda, O. Kitao, H. Nakai, 
 T. Vreven, K. Throssell, J. A. Montgomery, Jr., J. E. Peralta, 
 F. Ogliaro, M. J. Bearpark, J. J. Heyd, E. N. Brothers, K. N. Kudin, 
 V. N. Staroverov, T. A. Keith, R. Kobayashi, J. Normand, 
 K. Raghavachari, A. P. Rendell, J. C. Burant, S. S. Iyengar, 
 J. Tomasi, M. Cossi, J. M. Millam, M. Klene, C. Adamo, R. Cammi, 
 J. W. Ochterski, R. L. Martin, K. Morokuma, O. Farkas, 
 J. B. Foresman, and D. J. Fox, Gaussian, Inc., Wallingford CT, 2016.
 
 ******************************************
 Gaussian 16:  ES64L-G16RevB.01 20-Dec-2017
                 9-Apr-2024 
 ******************************************
 %mem=4GB
 %nproc=4
 Will use up to    4 processors via shared memory.
 %chk=model_H3
 ----------------------------------------------------------------------
 # m062x 6-311++G(d,p) opt=(maxstep=5,notrust,z-matrix,loose,maxcyc=50)
  scrf=(solvent=water)
 ----------------------------------------------------------------------
 1/6=50,7=-1,8=5,9=1,10=7,18=40,26=3,38=1/1,3;
 2/12=2,17=6,18=5,29=3,40=1/2;
 3/5=4,6=6,7=1111,11=2,25=1,30=1,70=2201,71=1,72=1,74=-55/1,2,3;
 4//1;
 5/5=2,38=5,53=1/2;
 6/7=2,8=2,9=2,10=2,28=1/1;
 7/29=1/1,2,3,16;
 1/6=50,7=-1,8=5,9=1,10=7,18=40,26=3/3(2);
 2/29=3/2;
 99//99;
 2/29=3/2;
 3/5=4,6=6,7=1111,11=2,25=1,30=1,70=2205,71=1,72=1,74=-55/1,2,3;
 4/5=5,16=3,69=1/1;
 5/5=2,38=5,53=1/2;
 7//1,2,3,16;
 1/6=50,7=-1,8=5,9=1,18=40,26=3/3(-5);
 2/29=3/2;
 6/7=2,8=2,9=2,10=2,19=2,28=1/1;
 99/9=1/99;
 ----
 test
 ----
 Symbolic Z-matrix:
 Charge =  0 Multiplicity = 1
 C1
 C2                   1    d1
 C3                   2    d2       1     120. 
 C4                   3    d3       2     120.     1     0.       0
 C5                   4    d4       3     120.     2     0.       0
 C6                   5    d5       4     120.     3     0.       0
 F7                   1    d6       2     120.     3     180.     0
 H8                   2    d7       3     120.     4     180.     0
 H9                   3    d8       4     120.     5     180.     0
 H10                  4    d9       5     120.     6     180.     0
 H11                  5    d10      6     120.     1     180.     0
 H12                  6    d11      1     120.     2     180.     0
 O13                  7    d12      1     179.9    3     180.     0
 C14                  13   d13      1     179.9    2     180.     0
 H15                  14   d14      1     120.     2     90.      0
 H16                  14   d15      1     120.     2    -90.      0
 H17                  7    d16      1     100.     2     90.      0
 Br18                 17   d17      7     160.     1     0.       0
 H19                  7    d18      1     100.     2    -30.      0
 Br20                 19   d19      7     160.     1     0.       0
 H21                  7    d20      1     100.     2    -150.     0
 Br22                 21   d21      7     160.     1     0.       0
       Variables:
  d1                    1.3                      
  d2                    1.3                      
  d3                    1.3                      
  d4                    1.3                      
  d5                    1.3                      
  d6                    1.4                      
  d7                    1.                       
  d8                    1.                       
  d9                    1.                       
  d10                   1.                       
  d11                   1.                       
  d12                   2.8                      
  d13                   1.2                      
  d14                   1.                       
  d15                   1.                       
  d16                   2.3                      
  d17                   1.4                      
  d18                   2.3                      
  d19                   1.4                      
  d20                   2.3                      
  d21                   1.4                      
 

 GradGradGradGradGradGradGradGradGradGradGradGradGradGradGradGradGradGrad
 Berny optimization.
 Initialization pass.
                       ----------------------------
                       !    Initial Parameters    !
                       ! (Angstroms and Degrees)  !
 ----------------------                            ----------------------
 !      Name          Value   Derivative information (Atomic Units)     !
 ------------------------------------------------------------------------
 !       d1          1.3      estimate D2E/DX2                          !
 !       d2          1.3      estimate D2E/DX2                          !
 !       d3          1.3      estimate D2E/DX2                          !
 !       d4          1.3      estimate D2E/DX2                          !
 !       d5          1.3      estimate D2E/DX2                          !
 !       d6          1.4      estimate D2E/DX2                          !
 !       d7          1.0      estimate D2E/DX2                          !
 !       d8          1.0      estimate D2E/DX2                          !
 !       d9          1.0      estimate D2E/DX2                          !
 !       d10         1.0      estimate D2E/DX2                          !
 !       d11         1.0      estimate D2E/DX2                          !
 !       d12         2.8      estimate D2E/DX2                          !
 !       d13         1.2      estimate D2E/DX2                          !
 !       d14         1.0      estimate D2E/DX2                          !
 !       d15         1.0      estimate D2E/DX2                          !
 !       d16         2.3      estimate D2E/DX2                          !
 !       d17         1.4      estimate D2E/DX2                          !
 !       d18         2.3      estimate D2E/DX2                          !
 !       d19         1.4      estimate D2E/DX2                          !
 !       d20         2.3      estimate D2E/DX2                          !
 !       d21         1.4      estimate D2E/DX2                          !
 ------------------------------------------------------------------------
 Trust Radius=5.00D-02 FncErr=1.00D-07 GrdErr=1.00D-06 EigMax=2.50D+02 EigMin=1.00D-04
 Number of steps in this run=     50 maximum allowed number of steps=    100.
 GradGradGradGradGradGradGradGradGradGradGradGradGradGradGradGradGradGrad

 ---------------------------------------------------------------------------------------------------
                            Z-MATRIX (ANGSTROMS AND DEGREES)
   CD    Cent   Atom    N1       Length/X        N2       Alpha/Y        N3        Beta/Z          J
 ---------------------------------------------------------------------------------------------------
      1      1  C 
      2      2  C        1   1.300000(     1)
      3      3  C        2   1.300000(     2)      1  120.000(    22)
      4      4  C        3   1.300000(     3)      2  120.000(    23)      1    0.000(    42)      0
      5      5  C        4   1.300000(     4)      3  120.000(    24)      2    0.000(    43)      0
      6      6  C        5   1.300000(     5)      4  120.000(    25)      3    0.000(    44)      0
      7      7  F        1   1.400000(     6)      2  120.000(    26)      3  180.000(    45)      0
      8      8  H        2   1.000000(     7)      3  120.000(    27)      4  180.000(    46)      0
      9      9  H        3   1.000000(     8)      4  120.000(    28)      5  180.000(    47)      0
     10     10  H        4   1.000000(     9)      5  120.000(    29)      6  180.000(    48)      0
     11     11  H        5   1.000000(    10)      6  120.000(    30)      1  180.000(    49)      0
     12     12  H        6   1.000000(    11)      1  120.000(    31)      2  180.000(    50)      0
     13     13  O        7   2.800000(    12)      1  179.900(    32)      3  180.000(    51)      0
     14     14  C       13   1.200000(    13)      1  179.900(    33)      2  180.000(    52)      0
     15     15  H       14   1.000000(    14)      1  120.000(    34)      2   90.000(    53)      0
     16     16  H       14   1.000000(    15)      1  120.000(    35)      2  -90.000(    54)      0
     17     17  H        7   2.300000(    16)      1  100.000(    36)      2   90.000(    55)      0
     18     18  Br      17   1.400000(    17)      7  160.000(    37)      1    0.000(    56)      0
     19     19  H        7   2.300000(    18)      1  100.000(    38)      2  -30.000(    57)      0
     20     20  Br      19   1.400000(    19)      7  160.000(    39)      1    0.000(    58)      0
     21     21  H        7   2.300000(    20)      1  100.000(    40)      2 -150.000(    59)      0
     22     22  Br      21   1.400000(    21)      7  160.000(    41)      1    0.000(    60)      0
 ---------------------------------------------------------------------------------------------------
                         Z-Matrix orientation:                         
 ---------------------------------------------------------------------
 Center     Atomic      Atomic             Coordinates (Angstroms)
 Number     Number       Type             X           Y           Z
 ---------------------------------------------------------------------
      1          6           0        0.000000    0.000000    0.000000
      2          6           0        0.000000    0.000000    1.300000
      3          6           0        1.125833    0.000000    1.950000
      4          6           0        2.251666    0.000000    1.300000
      5          6           0        2.251666    0.000000   -0.000000
      6          6           0        1.125833    0.000000   -0.650000
      7          9           0       -1.212436   -0.000000   -0.700000
      8          1           0       -0.866025   -0.000000    1.800000
      9          1           0        1.125833   -0.000000    2.950000
     10          1           0        3.117691   -0.000000    1.800000
     11          1           0        3.117691   -0.000000   -0.500000
     12          1           0        1.125833   -0.000000   -1.650000
     13          8           0       -3.634860   -0.000000   -2.104230
     14          6           0       -4.672340   -0.000000   -2.707251
     15          1           0       -5.104965    0.866025   -2.957922
     16          1           0       -5.104965   -0.866025   -2.957922
     17          1           0       -1.558318    2.265058   -0.899695
     18         35           0       -1.347781    3.643789   -0.778142
     19          1           0       -2.539117   -1.132529    0.799098
     20         35           0       -2.925588   -1.821894    1.954700
     21          1           0       -0.577519   -1.132529   -2.598489
     22         35           0        0.230026   -1.821894   -3.510983
 ---------------------------------------------------------------------
                    Distance matrix (angstroms):
                    1          2          3          4          5
     1  C    0.000000
     2  C    1.300000   0.000000
     3  C    2.251666   1.300000   0.000000
     4  C    2.600000   2.251666   1.300000   0.000000
     5  C    2.251666   2.600000   2.251666   1.300000   0.000000
     6  C    1.300000   2.251666   2.600000   2.251666   1.300000
     7  F    1.400000   2.338803   3.534119   4.000000   3.534119
     8  H    1.997498   1.000000   1.997498   3.157531   3.600000
     9  H    3.157531   1.997498   1.000000   1.997498   3.157531
    10  H    3.600000   3.157531   1.997498   1.000000   1.997498
    11  H    3.157531   3.600000   3.157531   1.997498   1.000000
    12  H    1.997498   3.157531   3.600000   3.157531   1.997498
    13  O    4.199999   4.980059   6.253077   6.799997   6.251317
    14  C    5.399997   6.155390   7.436988   7.999995   7.434452
    15  H    5.963218   6.703772   7.978755   8.543999   7.976172
    16  H    5.963218   6.703772   7.978755   8.543999   7.976172
    17  H    2.892800   3.521009   4.522822   4.948245   4.522822
    18  Br   3.962223   4.405949   5.180610   5.527376   5.180610
    19  H    2.892800   2.825003   4.004879   4.948245   4.987262
    20  Br   3.962223   3.508133   4.442221   5.527376   5.826157
    21  H    2.892800   4.100532   4.987262   4.948245   4.004879
    22  Br   3.962223   5.149541   5.826157   5.527376   4.442221
                    6          7          8          9         10
     6  C    0.000000
     7  F    2.338803   0.000000
     8  H    3.157531   2.523886   0.000000
     9  H    3.600000   4.334743   2.300000   0.000000
    10  H    3.157531   5.000000   3.983717   2.300000   0.000000
    11  H    1.997498   4.334743   4.600000   3.983717   2.300000
    12  H    1.000000   2.523886   3.983717   4.600000   3.983717
    13  O    4.977849   2.800000   4.786382   6.943301   7.799997
    14  C    6.152324   3.999999   5.899436   8.100821   8.999995
    15  H    6.700697   4.582575   6.430896   8.629970   9.539387
    16  H    6.700697   4.582575   6.430896   8.629970   9.539387
    17  H    3.521009   2.300000   3.591394   5.211076   5.855246
    18  Br   4.405949   3.647139   4.489554   5.770182   6.313830
    19  H    4.100532   2.300000   2.254698   4.397824   5.855246
    20  Br   5.149541   3.647139   2.754093   4.552354   6.313830
    21  H    2.825003   2.300000   4.551105   5.913523   5.855246
    22  Br   3.508133   3.647139   5.720767   6.772450   6.313830
                   11         12         13         14         15
    11  H    0.000000
    12  H    2.300000   0.000000
    13  O    6.940497   4.782313   0.000000
    14  C    8.096700   5.893776   1.200000   0.000000
    15  H    8.625744   6.425224   1.907878   1.000000   0.000000
    16  H    8.625744   6.425224   1.907878   1.000000   1.732051
    17  H    5.211076   3.591394   3.300517   4.253807   4.332700
    18  Br   5.770182   4.489554   4.501826   5.296353   5.155952
    19  H    5.913523   4.551105   3.303421   4.257669   4.969204
    20  Br   6.772450   5.720767   4.505250   5.301342   6.009031
    21  H    4.397824   2.254698   3.297612   4.249942   4.961973
    22  Br   4.552354   2.754093   4.498399   5.291359   5.999409
                   16         17         18         19         20
    16  H    0.000000
    17  H    5.159329   0.000000
    18  Br   6.261493   1.400000   0.000000
    19  H    4.557389   3.923195   5.169156   0.000000
    20  Br   5.458683   5.169156   6.311227   1.400000   0.000000
    21  H    4.549503   3.923195   5.169156   3.923195   5.169156
    22  Br   5.448090   5.169156   6.311227   5.169156   6.311227
                   21         22
    21  H    0.000000
    22  Br   1.400000   0.000000
 Stoichiometry    C7H10Br3FO
 Framework group  C1[X(C7H10Br3FO)]
 Deg. of freedom    60
 Full point group                 C1      NOp   1
 Largest Abelian subgroup         C1      NOp   1
 Largest concise Abelian subgroup C1      NOp   1
                         Standard orientation:                         
 ---------------------------------------------------------------------
 Center     Atomic      Atomic             Coordinates (Angstroms)
 Number     Number       Type             X           Y           Z
 ---------------------------------------------------------------------
      1          6           0       -0.002995    0.000000    1.170156
      2          6           0       -1.130146    0.000000    1.817869
      3          6           0       -1.132786    0.000000    3.117866
      4          6           0       -0.008275    0.000000    3.770151
      5          6           0        1.118876    0.000000    3.122439
      6          6           0        1.121516    0.000000    1.822441
      7          9           0       -0.000152    0.000000   -0.229841
      8          1           0       -1.995154    0.000000    1.316111
      9          1           0       -1.999825    0.000000    3.616106
     10          1           0       -0.010306    0.000000    4.770149
     11          1           0        1.983884    0.000000    3.624196
     12          1           0        1.988555    0.000000    1.324201
     13          8           0        0.010421    0.000000   -3.029821
     14          6           0        0.016349    0.000000   -4.229806
     15          1           0        0.018140    0.866025   -4.729803
     16          1           0        0.018140   -0.866025   -4.729803
     17          1           0        0.000659    2.265058   -0.629231
     18         35           0        0.000165    3.643789   -0.386124
     19          1           0       -1.960935   -1.132529   -0.633215
     20         35           0       -3.155442   -1.821894   -0.392532
     21          1           0        1.962253   -1.132529   -0.625247
     22         35           0        3.155772   -1.821894   -0.379716
 ---------------------------------------------------------------------
 Rotational constants (GHZ):           0.1960650           0.1904981           0.1561111
 Standard basis: 6-311++G(d,p) (5D, 7F)
 There are   430 symmetry adapted cartesian basis functions of A   symmetry.
 There are   412 symmetry adapted basis functions of A   symmetry.
   412 basis functions,   696 primitive gaussians,   430 cartesian basis functions
    87 alpha electrons       87 beta electrons
       nuclear repulsion energy      1603.3030283073 Hartrees.
 NAtoms=   22 NActive=   22 NUniq=   22 SFac= 1.00D+00 NAtFMM=   60 NAOKFM=F Big=F
 Integral buffers will be    131072 words long.
 Raffenetti 2 integral format.
 Two-electron integral symmetry is turned on.
 ------------------------------------------------------------------------------
 Polarizable Continuum Model (PCM)
 =================================
 Model                : PCM.
 Atomic radii         : UFF (Universal Force Field).
 Polarization charges : Total charges.
 Charge compensation  : None.
 Solution method      : On-the-fly selection.
 Cavity type          : Scaled VdW (van der Waals Surface) (Alpha=1.100).
 Cavity algorithm     : GePol (No added spheres)
                        Default sphere list used, NSphG=   22.
                        Lebedev-Laikov grids with approx.  5.0 points / Ang**2.
                        Smoothing algorithm: York/Karplus (Gamma=1.0000).
                        Polarization charges: spherical gaussians, with
                                              point-specific exponents (IZeta= 3).
                        Self-potential: point-specific (ISelfS= 7).
                        Self-field    : sphere-specific E.n sum rule (ISelfD= 2).
 1st derivatives      : Analytical E(r).r(x)/FMM algorithm (CHGder, D1EAlg=3).
                        Cavity 1st derivative terms included.
 Solvent              : Water, Eps=  78.355300 Eps(inf)=   1.777849
 ------------------------------------------------------------------------------
 One-electron integrals computed using PRISM.
 NBasis=   412 RedAO= T EigKep=  3.14D-06  NBF=   412
 NBsUse=   411 1.00D-06 EigRej=  3.76D-07 NBFU=   411
 ExpMin= 3.50D-02 ExpMax= 4.40D+05 ExpMxC= 1.51D+04 IAcc=3 IRadAn=         5 AccDes= 0.00D+00
 Harris functional with IExCor= 1009 and IRadAn=       5 diagonalized for initial guess.
 HarFok:  IExCor= 1009 AccDes= 0.00D+00 IRadAn=         5 IDoV= 1 UseB2=F ITyADJ=14
 ICtDFT=  3500011 ScaDFX=  1.000000  1.000000  1.000000  1.000000
 FoFCou: FMM=F IPFlag=           0 FMFlag=      100000 FMFlg1=           0
         NFxFlg=           0 DoJE=T BraDBF=F KetDBF=T FulRan=T
         wScrn=  0.000000 ICntrl=       500 IOpCl=  0 I1Cent=   200000004 NGrid=           0
         NMat0=    1 NMatS0=      1 NMatT0=    0 NMatD0=    1 NMtDS0=    0 NMtDT0=    0
 Petite list used in FoFCou.
 Requested convergence on RMS density matrix=1.00D-08 within 128 cycles.
 Requested convergence on MAX density matrix=1.00D-06.
 Requested convergence on             energy=1.00D-06.
 No special actions if energy rises.
 Inv3:  Mode=1 IEnd=    20077707.
 Iteration    1 A*A^-1 deviation from unit magnitude is 4.22D-15 for   2561.
 Iteration    1 A*A^-1 deviation from orthogonality  is 2.63D-15 for   2579   2262.
 Iteration    1 A^-1*A deviation from unit magnitude is 4.00D-15 for   2561.
 Iteration    1 A^-1*A deviation from orthogonality  is 2.58D-15 for   2585   2419.
 Error on total polarization charges =  0.02126
 SCF Done:  E(RM062X) =  -8170.15319713     A.U. after   15 cycles
            NFock= 15  Conv=0.18D-08     -V/T= 2.0010

 **********************************************************************

            Population analysis using the SCF Density.

 **********************************************************************

 Orbital symmetries:
       Occupied  (A) (A) (A) (A) (A) (A) (A) (A) (A) (A) (A) (A)
                 (A) (A) (A) (A) (A) (A) (A) (A) (A) (A) (A) (A)
                 (A) (A) (A) (A) (A) (A) (A) (A) (A) (A) (A) (A)
                 (A) (A) (A) (A) (A) (A) (A) (A) (A) (A) (A) (A)
                 (A) (A) (A) (A) (A) (A) (A) (A) (A) (A) (A) (A)
                 (A) (A) (A) (A) (A) (A) (A) (A) (A) (A) (A) (A)
                 (A) (A) (A) (A) (A) (A) (A) (A) (A) (A) (A) (A)
                 (A) (A) (A)
       Virtual   (A) (A) (A) (A) (A) (A) (A) (A) (A) (A) (A) (A)
                 (A) (A) (A) (A) (A) (A) (A) (A) (A) (A) (A) (A)
                 (A) (A) (A) (A) (A) (A) (A) (A) (A) (A) (A) (A)
                 (A) (A) (A) (A) (A) (A) (A) (A) (A) (A) (A) (A)
                 (A) (A) (A) (A) (A) (A) (A) (A) (A) (A) (A) (A)
                 (A) (A) (A) (A) (A) (A) (A) (A) (A) (A) (A) (A)
                 (A) (A) (A) (A) (A) (A) (A) (A) (A) (A) (A) (A)
                 (A) (A) (A) (A) (A) (A) (A) (A) (A) (A) (A) (A)
                 (A) (A) (A) (A) (A) (A) (A) (A) (A) (A) (A) (A)
                 (A) (A) (A) (A) (A) (A) (A) (A) (A) (A) (A) (A)
                 (A) (A) (A) (A) (A) (A) (A) (A) (A) (A) (A) (A)
                 (A) (A) (A) (A) (A) (A) (A) (A) (A) (A) (A) (A)
                 (A) (A) (A) (A) (A) (A) (A) (A) (A) (A) (A) (A)
                 (A) (A) (A) (A) (A) (A) (A) (A) (A) (A) (A) (A)
                 (A) (A) (A) (A) (A) (A) (A) (A) (A) (A) (A) (A)
                 (A) (A) (A) (A) (A) (A) (A) (A) (A) (A) (A) (A)
                 (A) (A) (A) (A) (A) (A) (A) (A) (A) (A) (A) (A)
                 (A) (A) (A) (A) (A) (A) (A) (A) (A) (A) (A) (A)
                 (A) (A) (A) (A) (A) (A) (A) (A) (A) (A) (A) (A)
                 (A) (A) (A) (A) (A) (A) (A) (A) (A) (A) (A) (A)
                 (A) (A) (A) (A) (A) (A) (A) (A) (A) (A) (A) (A)
                 (A) (A) (A) (A) (A) (A) (A) (A) (A) (A) (A) (A)
                 (A) (A) (A) (A) (A) (A) (A) (A) (A) (A) (A) (A)
                 (A) (A) (A) (A) (A) (A) (A) (A) (A) (A) (A) (A)
                 (A) (A) (A) (A) (A) (A) (A) (A) (A) (A) (A) (A)
                 (A) (A) (A) (A) (A) (A) (A) (A) (A) (A) (A) (A)
                 (A) (A) (A) (A) (A) (A) (A) (A) (A) (A) (A) (A)
 The electronic state is 1-A.
 Alpha  occ. eigenvalues -- -485.34340-485.34339-485.34235 -63.33588 -63.33587
 Alpha  occ. eigenvalues --  -63.33478 -57.16309 -57.16308 -57.16199 -57.16085
 Alpha  occ. eigenvalues --  -57.16085 -57.16083 -57.16083 -57.15977 -57.15976
 Alpha  occ. eigenvalues --  -25.26749 -19.63993 -10.61859 -10.61646 -10.52735
 Alpha  occ. eigenvalues --  -10.52732 -10.52403 -10.52391 -10.51658  -9.02325
 Alpha  occ. eigenvalues --   -9.02325  -9.02209  -6.85073  -6.85073  -6.84953
 Alpha  occ. eigenvalues --   -6.84131  -6.84130  -6.84124  -6.84124  -6.84015
 Alpha  occ. eigenvalues --   -6.84013  -2.88258  -2.88258  -2.88139  -2.87880
 Alpha  occ. eigenvalues --   -2.87880  -2.87875  -2.87875  -2.87761  -2.87759
 Alpha  occ. eigenvalues --   -2.87062  -2.87062  -2.87061  -2.87061  -2.86950
 Alpha  occ. eigenvalues --   -2.86950  -1.37263  -1.19200  -1.03507  -0.89822
 Alpha  occ. eigenvalues --   -0.88981  -0.88608  -0.88596  -0.88493  -0.74982
 Alpha  occ. eigenvalues --   -0.74284  -0.72831  -0.67022  -0.60516  -0.59956
 Alpha  occ. eigenvalues --   -0.59550  -0.58517  -0.54316  -0.53792  -0.53369
 Alpha  occ. eigenvalues --   -0.51560  -0.50671  -0.50241  -0.49929  -0.48211
 Alpha  occ. eigenvalues --   -0.47609  -0.44747  -0.42540  -0.37069  -0.36999
 Alpha  occ. eigenvalues --   -0.36919  -0.36843  -0.36836  -0.36777  -0.35121
 Alpha  occ. eigenvalues --   -0.33962  -0.33225
 Alpha virt. eigenvalues --   -0.00599  -0.00471   0.00819   0.01058   0.01458
 Alpha virt. eigenvalues --    0.01872   0.02107   0.02903   0.03038   0.03253
 Alpha virt. eigenvalues --    0.03631   0.03855   0.04128   0.04775   0.05516
 Alpha virt. eigenvalues --    0.05911   0.06114   0.06917   0.07110   0.07325
 Alpha virt. eigenvalues --    0.07470   0.07948   0.08352   0.08742   0.08847
 Alpha virt. eigenvalues --    0.09205   0.10321   0.11316   0.11471   0.12323
 Alpha virt. eigenvalues --    0.12444   0.12899   0.13601   0.14030   0.14204
 Alpha virt. eigenvalues --    0.14376   0.14568   0.15152   0.15773   0.15977
 Alpha virt. eigenvalues --    0.16158   0.16392   0.17080   0.17933   0.18037
 Alpha virt. eigenvalues --    0.18744   0.19170   0.20353   0.20603   0.21374
 Alpha virt. eigenvalues --    0.21899   0.21956   0.22718   0.22878   0.23178
 Alpha virt. eigenvalues --    0.25303   0.26192   0.26912   0.28349   0.29327
 Alpha virt. eigenvalues --    0.30883   0.31447   0.33178   0.34359   0.34433
 Alpha virt. eigenvalues --    0.35000   0.35479   0.35803   0.37655   0.38796
 Alpha virt. eigenvalues --    0.39178   0.40539   0.42921   0.43500   0.43619
 Alpha virt. eigenvalues --    0.44602   0.44689   0.45528   0.46200   0.46385
 Alpha virt. eigenvalues --    0.46848   0.47440   0.48366   0.48376   0.49314
 Alpha virt. eigenvalues --    0.50787   0.51357   0.52264   0.53758   0.55019
 Alpha virt. eigenvalues --    0.55608   0.57386   0.58387   0.58437   0.59990
 Alpha virt. eigenvalues --    0.60251   0.61272   0.61447   0.61701   0.62189
 Alpha virt. eigenvalues --    0.62963   0.63221   0.63852   0.64195   0.64965
 Alpha virt. eigenvalues --    0.66648   0.67002   0.67111   0.67219   0.68366
 Alpha virt. eigenvalues --    0.69446   0.69725   0.70977   0.72039   0.73840
 Alpha virt. eigenvalues --    0.74150   0.74188   0.74322   0.74949   0.76025
 Alpha virt. eigenvalues --    0.78093   0.79573   0.81199   0.82012   0.82158
 Alpha virt. eigenvalues --    0.84025   0.86543   0.87539   0.87960   0.90332
 Alpha virt. eigenvalues --    0.91375   0.93445   0.94828   0.97573   0.98299
 Alpha virt. eigenvalues --    0.98763   1.00171   1.02216   1.03527   1.03642
 Alpha virt. eigenvalues --    1.06903   1.08257   1.08589   1.08753   1.12115
 Alpha virt. eigenvalues --    1.13212   1.16729   1.18975   1.19054   1.22876
 Alpha virt. eigenvalues --    1.24144   1.26829   1.28585   1.34676   1.35444
 Alpha virt. eigenvalues --    1.39111   1.45858   1.47628   1.48212   1.49173
 Alpha virt. eigenvalues --    1.50597   1.52632   1.53643   1.55501   1.58014
 Alpha virt. eigenvalues --    1.58258   1.61429   1.64515   1.65715   1.66212
 Alpha virt. eigenvalues --    1.67419   1.67955   1.68217   1.71940   1.73627
 Alpha virt. eigenvalues --    1.73805   1.77125   1.77479   1.80335   1.82335
 Alpha virt. eigenvalues --    1.85741   1.85925   1.86169   1.90903   1.94260
 Alpha virt. eigenvalues --    1.97375   1.98245   2.02608   2.02683   2.03070
 Alpha virt. eigenvalues --    2.03284   2.03707   2.03983   2.04355   2.04935
 Alpha virt. eigenvalues --    2.05539   2.05705   2.06159   2.06338   2.06907
 Alpha virt. eigenvalues --    2.07919   2.08832   2.10926   2.12205   2.14342
 Alpha virt. eigenvalues --    2.17393   2.18699   2.18838   2.20500   2.22223
 Alpha virt. eigenvalues --    2.29062   2.37469   2.41087   2.46498   2.49049
 Alpha virt. eigenvalues --    2.50649   2.52154   2.57770   2.59837   2.62554
 Alpha virt. eigenvalues --    2.64036   2.65634   2.67322   2.71364   2.72111
 Alpha virt. eigenvalues --    2.75446   2.77565   2.78617   2.78759   2.79107
 Alpha virt. eigenvalues --    2.81356   2.86330   2.86351   2.88862   2.90454
 Alpha virt. eigenvalues --    2.90602   2.96541   2.98992   2.99932   3.03658
 Alpha virt. eigenvalues --    3.08360   3.12113   3.24434   3.27353   3.35233
 Alpha virt. eigenvalues --    3.40168   3.42402   3.55502   3.59798   3.61864
 Alpha virt. eigenvalues --    3.64593   3.75364   3.76076   3.86142   3.88211
 Alpha virt. eigenvalues --    3.97507   4.00552   4.03440   4.09251   4.13937
 Alpha virt. eigenvalues --    4.17001   4.19044   4.25648   4.26045   4.27964
 Alpha virt. eigenvalues --    4.27984   4.28942   4.29209   4.29722   4.29754
 Alpha virt. eigenvalues --    4.32957   4.33501   4.33956   4.34896   4.36292
 Alpha virt. eigenvalues --    4.36794   4.37187   4.49008   4.49901   4.52195
 Alpha virt. eigenvalues --    4.94381   4.95744   5.12963   5.23926   5.83634
 Alpha virt. eigenvalues --    6.53141   6.64837   6.82621   6.83253   6.88687
 Alpha virt. eigenvalues --    6.92752   7.62671   7.63060   7.63986   7.64966
 Alpha virt. eigenvalues --    7.65662   7.66103   7.67335   7.67878   7.68114
 Alpha virt. eigenvalues --   23.73888  24.17867  24.26801  24.31634  24.54019
 Alpha virt. eigenvalues --   24.57226  24.72816  48.35234  48.35947  48.41767
 Alpha virt. eigenvalues --   50.07260  66.96553 290.77347 290.77798 290.78893
 Alpha virt. eigenvalues --  290.79930 290.80823 290.81124 290.84443 290.84993
 Alpha virt. eigenvalues --  290.850981020.908911020.918301020.99197
          Condensed to atoms (all electrons):
               1          2          3          4          5          6
     1  C   15.352810  -1.261149  -2.610470  -0.992428  -2.614110  -1.268495
     2  C   -1.261149  17.887449   0.435059  -1.061973  -0.193011 -10.030141
     3  C   -2.610470   0.435059   7.896205   0.895256  -0.719834  -0.192055
     4  C   -0.992428  -1.061973   0.895256   7.129034   0.896923  -1.059103
     5  C   -2.614110  -0.193011  -0.719834   0.896923   7.899534   0.435122
     6  C   -1.268495 -10.030141  -0.192055  -1.059103   0.435122  17.890237
     7  F    0.468706  -0.249948  -0.004517   0.022315  -0.004578  -0.248949
     8  H   -0.567330   0.558180   0.167299   0.086374   0.134386  -0.219949
     9  H    0.076419  -0.056228   0.419910  -0.124253  -0.054702   0.091804
    10  H    0.044752  -0.011304  -0.072015   0.478465  -0.071986  -0.011175
    11  H    0.076651   0.091885  -0.054680  -0.124276   0.419776  -0.056380
    12  H   -0.567356  -0.219990   0.134283   0.086306   0.167342   0.558295
    13  O    0.028191  -0.012904  -0.000997  -0.000789  -0.000992  -0.012890
    14  C   -0.003379   0.001005   0.000725   0.000310   0.000727   0.001017
    15  H    0.002086  -0.000831  -0.000267  -0.000056  -0.000272  -0.000877
    16  H   -0.002947   0.001097   0.000244   0.000044   0.000247   0.001124
    17  H   -0.086875   0.018462   0.008040  -0.007711   0.007875   0.016957
    18  Br   0.267545  -0.069336  -0.038845   0.002059  -0.038678  -0.068235
    19  H   -0.049797   0.243213  -0.035938   0.007727  -0.005213  -0.187845
    20  Br  -0.016454  -0.299105   0.131875   0.020677   0.022144   0.077080
    21  H   -0.049670  -0.187699  -0.005063   0.007719  -0.036243   0.243048
    22  Br  -0.016563   0.077117   0.022072   0.020653   0.132106  -0.299086
               7          8          9         10         11         12
     1  C    0.468706  -0.567330   0.076419   0.044752   0.076651  -0.567356
     2  C   -0.249948   0.558180  -0.056228  -0.011304   0.091885  -0.219990
     3  C   -0.004517   0.167299   0.419910  -0.072015  -0.054680   0.134283
     4  C    0.022315   0.086374  -0.124253   0.478465  -0.124276   0.086306
     5  C   -0.004578   0.134386  -0.054702  -0.071986   0.419776   0.167342
     6  C   -0.248949  -0.219949   0.091804  -0.011175  -0.056380   0.558295
     7  F    9.258137  -0.001783  -0.001589   0.001372  -0.001579  -0.001855
     8  H   -0.001783   0.798493  -0.044265  -0.001935   0.004777  -0.012817
     9  H   -0.001589  -0.044265   0.476873  -0.013094  -0.000394   0.004786
    10  H    0.001372  -0.001935  -0.013094   0.483666  -0.013090  -0.001934
    11  H   -0.001579   0.004777  -0.000394  -0.013090   0.476861  -0.044294
    12  H   -0.001855  -0.012817   0.004786  -0.001934  -0.044294   0.798781
    13  O    0.012269   0.001938   0.000023  -0.000003   0.000024   0.001915
    14  C    0.004749   0.000518  -0.000041   0.000015  -0.000041   0.000513
    15  H   -0.000357  -0.000064   0.000001  -0.000001   0.000001  -0.000064
    16  H   -0.000460  -0.000180   0.000004  -0.000000   0.000004  -0.000179
    17  H   -0.023105   0.008520   0.001001  -0.001017   0.001012   0.008405
    18  Br   0.001870  -0.001220  -0.001541   0.001362  -0.001546  -0.001157
    19  H   -0.041416   0.002580  -0.000337   0.000435  -0.000214   0.002676
    20  Br   0.019361   0.089245  -0.005490  -0.000655   0.000480  -0.004096
    21  H   -0.041387   0.002612  -0.000206   0.000433  -0.000326   0.002558
    22  Br   0.019308  -0.004055   0.000476  -0.000655  -0.005491   0.089256
              13         14         15         16         17         18
     1  C    0.028191  -0.003379   0.002086  -0.002947  -0.086875   0.267545
     2  C   -0.012904   0.001005  -0.000831   0.001097   0.018462  -0.069336
     3  C   -0.000997   0.000725  -0.000267   0.000244   0.008040  -0.038845
     4  C   -0.000789   0.000310  -0.000056   0.000044  -0.007711   0.002059
     5  C   -0.000992   0.000727  -0.000272   0.000247   0.007875  -0.038678
     6  C   -0.012890   0.001017  -0.000877   0.001124   0.016957  -0.068235
     7  F    0.012269   0.004749  -0.000357  -0.000460  -0.023105   0.001870
     8  H    0.001938   0.000518  -0.000064  -0.000180   0.008520  -0.001220
     9  H    0.000023  -0.000041   0.000001   0.000004   0.001001  -0.001541
    10  H   -0.000003   0.000015  -0.000001  -0.000000  -0.001017   0.001362
    11  H    0.000024  -0.000041   0.000001   0.000004   0.001012  -0.001546
    12  H    0.001915   0.000513  -0.000064  -0.000179   0.008405  -0.001157
    13  O    8.224504   0.253391  -0.087530  -0.091421   0.010582  -0.005247
    14  C    0.253391   4.809777   0.417939   0.419877  -0.001862  -0.000116
    15  H   -0.087530   0.417939   0.664815  -0.120820   0.002850  -0.000119
    16  H   -0.091421   0.419877  -0.120820   0.663749  -0.000554   0.000177
    17  H    0.010582  -0.001862   0.002850  -0.000554   0.633737   0.231533
    18  Br  -0.005247  -0.000116  -0.000119   0.000177   0.231533  34.862289
    19  H    0.012654   0.001838  -0.000034   0.000254   0.006593  -0.005035
    20  Br  -0.007760  -0.001328  -0.000103  -0.000050  -0.001171   0.000929
    21  H    0.012717   0.001985  -0.000029   0.000239   0.006577  -0.005036
    22  Br  -0.007835  -0.001377  -0.000108  -0.000042  -0.001190   0.000941
              19         20         21         22
     1  C   -0.049797  -0.016454  -0.049670  -0.016563
     2  C    0.243213  -0.299105  -0.187699   0.077117
     3  C   -0.035938   0.131875  -0.005063   0.022072
     4  C    0.007727   0.020677   0.007719   0.020653
     5  C   -0.005213   0.022144  -0.036243   0.132106
     6  C   -0.187845   0.077080   0.243048  -0.299086
     7  F   -0.041416   0.019361  -0.041387   0.019308
     8  H    0.002580   0.089245   0.002612  -0.004055
     9  H   -0.000337  -0.005490  -0.000206   0.000476
    10  H    0.000435  -0.000655   0.000433  -0.000655
    11  H   -0.000214   0.000480  -0.000326  -0.005491
    12  H    0.002676  -0.004096   0.002558   0.089256
    13  O    0.012654  -0.007760   0.012717  -0.007835
    14  C    0.001838  -0.001328   0.001985  -0.001377
    15  H   -0.000034  -0.000103  -0.000029  -0.000108
    16  H    0.000254  -0.000050   0.000239  -0.000042
    17  H    0.006593  -0.001171   0.006577  -0.001190
    18  Br  -0.005035   0.000929  -0.005036   0.000941
    19  H    0.695767   0.195004  -0.025662   0.013655
    20  Br   0.195004  34.911403   0.013671  -0.005939
    21  H   -0.025662   0.013671   0.696030   0.194770
    22  Br   0.013655  -0.005939   0.194770  34.911589
 Mulliken charges:
               1
     1  C   -0.210138
     2  C    0.340153
     3  C   -0.376287
     4  C   -0.283274
     5  C   -0.376563
     6  C    0.340496
     7  F   -0.186564
     8  H   -0.001324
     9  H    0.230842
    10  H    0.188368
    11  H    0.230840
    12  H   -0.001374
    13  O   -0.329841
    14  C    0.093758
    15  H    0.123841
    16  H    0.129592
    17  H    0.161338
    18  Br  -0.132594
    19  H    0.169094
    20  Br  -0.139719
    21  H    0.168961
    22  Br  -0.139604
 Sum of Mulliken charges =  -0.00000
 Mulliken charges with hydrogens summed into heavy atoms:
               1
     1  C   -0.210138
     2  C    0.338828
     3  C   -0.145445
     4  C   -0.094906
     5  C   -0.145722
     6  C    0.339122
     7  F   -0.186564
    13  O   -0.329841
    14  C    0.347190
    18  Br   0.028744
    20  Br   0.029375
    22  Br   0.029357
 Electronic spatial extent (au):  <R**2>=           7383.5104
 Charge=             -0.0000 electrons
 Dipole moment (field-independent basis, Debye):
    X=              0.0102    Y=             -0.0523    Z=             -0.9133  Tot=              0.9149
 Quadrupole moment (field-independent basis, Debye-Ang):
   XX=           -112.9606   YY=           -121.2913   ZZ=            -77.5974
   XY=              0.0005   XZ=             -0.1216   YZ=             -0.1399
 Traceless Quadrupole moment (field-independent basis, Debye-Ang):
   XX=             -9.0108   YY=            -17.3415   ZZ=             26.3523
   XY=              0.0005   XZ=             -0.1216   YZ=             -0.1399
 Octapole moment (field-independent basis, Debye-Ang**2):
  XXX=             -0.0393  YYY=             -4.9943  ZZZ=           -131.8217  XYY=              0.0440
  XXY=              4.4102  XXZ=              2.1918  XZZ=              0.5037  YZZ=             -0.0325
  YYZ=            -21.6284  XYZ=              0.0090
 Hexadecapole moment (field-independent basis, Debye-Ang**3):
 XXXX=          -2585.3678 YYYY=          -2411.6056 ZZZZ=          -1803.0663 XXXY=              0.0788
 XXXZ=              0.8114 YYYX=             -0.0195 YYYZ=             11.6693 ZZZX=             -1.7271
 ZZZY=             -0.5894 XXYY=           -842.6303 XXZZ=           -846.9401 YYZZ=           -869.1879
 XXYZ=            -13.7620 YYXZ=              0.3493 ZZXY=             -0.0540
 N-N= 1.603303028307D+03 E-N=-2.271810887790D+04  KE= 8.162171100985D+03
 D1PCM: PCM CHGder 1st derivatives, ID1Alg=3 FixD1E=F DoIter=F DoCFld=F I1PDM=0.
 Calling FoFJK, ICntrl=      2127 FMM=F ISym2X=0 I1Cent= 0 IOpClX= 0 NMat=1 NMatS=1 NMatT=0.
 ***** Axes restored to original set *****
 -------------------------------------------------------------------
 Center     Atomic                   Forces (Hartrees/Bohr)
 Number     Number              X              Y              Z
 -------------------------------------------------------------------
      1        6          -0.081129449    0.000146797   -0.046836771
      2        6          -0.053753589    0.001169343    0.014420415
      3        6           0.002697555    0.000101743    0.037505066
      4        6           0.039022524   -0.000317698    0.022529327
      5        6           0.033822333    0.000101798   -0.016424970
      6        6          -0.014400496    0.001169186   -0.053760530
      7        9           0.018620242    0.000025224    0.010757835
      8        1          -0.062229208    0.002142545    0.036537660
      9        1          -0.001819977    0.000084006    0.073757868
     10        1           0.064233496    0.000004265    0.037084566
     11        1           0.062967603    0.000083973   -0.038452279
     12        1           0.000526441    0.002141357   -0.072161916
     13        8           0.017675190   -0.000030837    0.010191285
     14        6           0.059728365   -0.000002545    0.034809572
     15        1          -0.039046750    0.071334129   -0.022707815
     16        1          -0.039047541   -0.071315602   -0.022708205
     17        1          -0.002511213   -0.014497879   -0.001449295
     18       35           0.002287976    0.012588130    0.001318803
     19        1           0.002404492    0.006141393   -0.012594189
     20       35          -0.006464673   -0.008608051    0.010804856
     21        1          -0.009687749    0.006158309    0.008397029
     22       35           0.006104427   -0.008619586   -0.011018312
 -------------------------------------------------------------------
 Cartesian Forces:  Max     0.081129449 RMS     0.032053713
 -----------------------------------------------------------------------------------------------
                       Internal Coordinate Forces (Hartree/Bohr or radian)
  Cent   Atom   N1       Length/X         N2         Alpha/Y        N3         Beta/Z          J
 -----------------------------------------------------------------------------------------------
      1  C 
      2  C        1   0.041386(     1)
      3  C        2   0.157379(     2)      1   0.175041(    22)
      4  C        3   0.221822(     3)      2   0.426409(    23)      1   0.010841(    42)     0
      5  C        4   0.180449(     4)      3   0.451121(    24)      2   0.014612(    43)     0
      6  C        5   0.074626(     5)      4   0.246929(    25)      3   0.007174(    44)     0
      7  F        1  -0.011615(     6)      2   0.000014(    26)      3   0.003550(    45)     0
      8  H        2   0.072161(     7)      3  -0.000998(    27)      4   0.003506(    46)     0
      9  H        3   0.073758(     8)      4   0.003439(    28)      5   0.000137(    47)     0
     10  H        4   0.074170(     9)      5  -0.000001(    29)      6   0.000007(    48)     0
     11  H        5   0.073758(    10)      6  -0.003433(    30)      1   0.000137(    49)     0
     12  H        6   0.072162(    11)      1   0.000995(    31)      2   0.003504(    50)     0
     13  O        7   0.000806(    12)      1  -0.000069(    32)      3   0.000000(    51)     0
     14  C       13   0.021209(    13)      1   0.000104(    33)      2  -0.000000(    52)     0
     15  H       14   0.084362(    14)      1   0.006521(    34)      2   0.000118(    53)     0
     16  H       14   0.084346(    15)      1   0.006540(    35)      2  -0.000118(    54)     0
     17  H        7  -0.001836(    16)      1   0.001451(    36)      2   0.000011(    55)     0
     18  Br      17   0.012855(    17)      7  -0.001097(    37)      1   0.000002(    56)     0
     19  H        7   0.002390(    18)      1   0.025132(    38)      2  -0.011138(    57)     0
     20  Br      19   0.014942(    19)      7   0.007497(    39)      1  -0.001050(    58)     0
     21  H        7   0.002386(    20)      1   0.025222(    40)      2   0.011142(    59)     0
     22  Br      21   0.014947(    21)      7   0.007571(    41)      1   0.001057(    60)     0
 -----------------------------------------------------------------------------------------------
 Internal  Forces:  Max     0.451120595 RMS     0.102889096

 GradGradGradGradGradGradGradGradGradGradGradGradGradGradGradGradGradGrad
 Berny optimization.
 Search for a local minimum.
 Step number   1 out of a maximum of   50
 All quantities printed in internal units (Hartrees-Bohrs-Radians)
 Second derivative matrix not updated -- first step.
 ITU=  0
     Eigenvalues ---    0.02330   0.02721   0.02721   0.02721   0.24007
     Eigenvalues ---    0.24007   0.24007   0.45621   0.47688   0.47688
     Eigenvalues ---    0.47688   0.47688   0.47688   0.47688   0.47688
     Eigenvalues ---    0.67193   0.67193   0.67193   1.04823   1.12429
     Eigenvalues ---    2.01579
 RFO step:  Lambda=-1.61665720D-01 EMin= 2.33007068D-02
 Linear search not attempted -- first point.
 Maximum step size (   0.050) exceeded in Quadratic search.
    -- Step size scaled by   0.112
 Variable       Old X    -DE/DX   Delta X   Delta X   Delta X     New X
                                 (Linear)    (Quad)   (Total)
    d1        2.45664   0.04139   0.00000   0.01308   0.01308   2.46972
    d2        2.45664   0.15738   0.00000   0.01486   0.01486   2.47151
    d3        2.45664   0.22182   0.00000   0.01595   0.01595   2.47260
    d4        2.45664   0.18045   0.00000   0.01663   0.01663   2.47327
    d5        2.45664   0.07463   0.00000   0.01620   0.01620   2.47285
    d6        2.64562  -0.01162   0.00000  -0.00210  -0.00210   2.64352
    d7        1.88973   0.07216   0.00000   0.01261   0.01261   1.90234
    d8        1.88973   0.07376   0.00000   0.01289   0.01289   1.90262
    d9        1.88973   0.07417   0.00000   0.01297   0.01297   1.90269
   d10        1.88973   0.07376   0.00000   0.01289   0.01289   1.90262
   d11        1.88973   0.07216   0.00000   0.01261   0.01261   1.90234
   d12        5.29123   0.00081   0.00000   0.00049   0.00049   5.29172
   d13        2.26767   0.02121   0.00000   0.00196   0.00196   2.26963
   d14        1.88973   0.08436   0.00000   0.01475   0.01475   1.90447
   d15        1.88973   0.08435   0.00000   0.01474   0.01474   1.90447
   d16        4.34637  -0.00184   0.00000  -0.00108  -0.00108   4.34529
   d17        2.64562   0.01286   0.00000   0.00357   0.00357   2.64919
   d18        4.34637   0.00239   0.00000   0.00141   0.00141   4.34778
   d19        2.64562   0.01494   0.00000   0.00415   0.00415   2.64977
   d20        4.34637   0.00239   0.00000   0.00141   0.00141   4.34778
   d21        2.64562   0.01495   0.00000   0.00415   0.00415   2.64977
         Item               Value     Threshold  Converged?
 Maximum Force            0.221822     0.002500     NO 
 RMS     Force            0.086205     0.001667     NO 
 Maximum Displacement     0.016625     0.010000     NO 
 RMS     Displacement     0.010911     0.006667     NO 
 Predicted change in Energy=-1.724036D-02
 GradGradGradGradGradGradGradGradGradGradGradGradGradGradGradGradGradGrad

 ---------------------------------------------------------------------------------------------------
                            Z-MATRIX (ANGSTROMS AND DEGREES)
   CD    Cent   Atom    N1       Length/X        N2       Alpha/Y        N3        Beta/Z          J
 ---------------------------------------------------------------------------------------------------
      1      1  C 
      2      2  C        1   1.306921(     1)
      3      3  C        2   1.307865(     2)      1  120.000(    22)
      4      4  C        3   1.308443(     3)      2  120.000(    23)      1    0.000(    42)      0
      5      5  C        4   1.308798(     4)      3  120.000(    24)      2    0.000(    43)      0
      6      6  C        5   1.308575(     5)      4  120.000(    25)      3    0.000(    44)      0
      7      7  F        1   1.398890(     6)      2  120.000(    26)      3  180.000(    45)      0
      8      8  H        2   1.006675(     7)      3  120.000(    27)      4  180.000(    46)      0
      9      9  H        3   1.006823(     8)      4  120.000(    28)      5  180.000(    47)      0
     10     10  H        4   1.006861(     9)      5  120.000(    29)      6  180.000(    48)      0
     11     11  H        5   1.006823(    10)      6  120.000(    30)      1  180.000(    49)      0
     12     12  H        6   1.006675(    11)      1  120.000(    31)      2  180.000(    50)      0
     13     13  O        7   2.800257(    12)      1  179.900(    32)      3  180.000(    51)      0
     14     14  C       13   1.201035(    13)      1  179.900(    33)      2  180.000(    52)      0
     15     15  H       14   1.007804(    14)      1  120.000(    34)      2   90.000(    53)      0
     16     16  H       14   1.007802(    15)      1  120.000(    35)      2  -90.000(    54)      0
     17     17  H        7   2.299426(    16)      1  100.000(    36)      2   90.000(    55)      0
     18     18  Br      17   1.401890(    17)      7  160.000(    37)      1    0.000(    56)      0
     19     19  H        7   2.300748(    18)      1  100.000(    38)      2  -30.000(    57)      0
     20     20  Br      19   1.402197(    19)      7  160.000(    39)      1    0.000(    58)      0
     21     21  H        7   2.300746(    20)      1  100.000(    40)      2 -150.000(    59)      0
     22     22  Br      21   1.402198(    21)      7  160.000(    41)      1    0.000(    60)      0
 ---------------------------------------------------------------------------------------------------
                         Z-Matrix orientation:                         
 ---------------------------------------------------------------------
 Center     Atomic      Atomic             Coordinates (Angstroms)
 Number     Number       Type             X           Y           Z
 ---------------------------------------------------------------------
      1          6           0        0.000000    0.000000    0.000000
      2          6           0        0.000000    0.000000    1.306921
      3          6           0        1.132644    0.000000    1.960854
      4          6           0        2.265789    0.000000    1.306632
      5          6           0        2.265789    0.000000   -0.002165
      6          6           0        1.132530    0.000000   -0.656453
      7          9           0       -1.211474   -0.000000   -0.699445
      8          1           0       -0.871806   -0.000000    1.810259
      9          1           0        1.132644   -0.000000    2.967676
     10          1           0        3.137756   -0.000000    1.810063
     11          1           0        3.137723   -0.000000   -0.505577
     12          1           0        1.130807   -0.000000   -1.663127
     13          8           0       -3.634121   -0.000000   -2.103804
     14          6           0       -4.672496   -0.000000   -2.707345
     15          1           0       -5.108496    0.872784   -2.959973
     16          1           0       -5.108496   -0.872782   -2.959973
     17          1           0       -1.557270    2.264492   -0.899090
     18         35           0       -1.346449    3.645085   -0.777373
     19          1           0       -2.538587   -1.132897    0.800140
     20         35           0       -2.925664   -1.823344    1.957556
     21          1           0       -0.576352   -1.132896   -2.598550
     22         35           0        0.232461   -1.823344   -3.512476
 ---------------------------------------------------------------------
                    Distance matrix (angstroms):
                    1          2          3          4          5
     1  C    0.000000
     2  C    1.306921   0.000000
     3  C    2.264471   1.307865   0.000000
     4  C    2.615547   2.265789   1.308443   0.000000
     5  C    2.265790   2.616774   2.266597   1.308798   0.000000
     6  C    1.309028   2.266597   2.617306   2.266711   1.308575
     7  F    1.398890   2.343752   3.545712   4.014437   3.546485
     8  H    2.009249   1.006675   2.010100   3.177757   3.623449
     9  H    3.176474   2.010222   1.006823   2.010742   3.178675
    10  H    3.622408   3.177839   2.010774   1.006861   2.011094
    11  H    3.178193   3.623597   3.178619   2.011062   1.006823
    12  H    2.011148   3.178035   3.623981   3.179253   2.011709
    13  O    4.199145   4.983962   6.264462   6.814690   6.263051
    14  C    5.400179   6.160077   7.449277   8.015723   7.446999
    15  H    5.968243   6.713038   7.995506   8.564214   7.993151
    16  H    5.968242   6.713037   7.995506   8.564213   7.993150
    17  H    2.891605   3.524132   4.532421   4.960738   4.533010
    18  Br   3.962811   4.409518   5.189453   5.538770   5.189976
    19  H    2.892767   2.825722   4.013558   4.962057   5.000917
    20  Br   3.964356   3.508193   4.449096   5.540710   5.840913
    21  H    2.892766   4.107108   4.999228   4.961014   4.012783
    22  Br   3.964355   5.158024   5.838857   5.539207   4.447616
                    6          7          8          9         10
     6  C    0.000000
     7  F    2.344398   0.000000
     8  H    3.178369   2.532585   0.000000
     9  H    3.624129   4.352317   2.314614   0.000000
    10  H    3.178778   5.021297   4.009562   2.315284   0.000000
    11  H    2.010861   4.353515   4.630272   4.010465   2.315640
    12  H    1.006675   2.532778   4.009347   4.630803   4.011345
    13  O    4.981544   2.800257   4.790644   6.960026   7.821551
    14  C    6.156662   4.001292   5.903727   8.118222   9.022583
    15  H    6.709573   4.588957   6.439441   8.651625   9.566382
    16  H    6.709572   4.588956   6.439441   8.651624   9.566381
    17  H    3.524461   2.299426   3.596993   5.226418   5.874581
    18  Br   4.409830   3.648415   4.495305   5.784283   6.331631
    19  H    4.108797   2.300748   2.254318   4.411304   5.875735
    20  Br   5.160093   3.650025   2.750384   4.562323   6.333356
    21  H    2.824087   2.300746   4.561616   5.931863   5.874854
    22  Br   3.505935   3.650024   5.733716   6.791708   6.332041
                   11         12         13         14         15
    11  H    0.000000
    12  H    2.316815   0.000000
    13  O    6.957887   4.785262   0.000000
    14  C    8.114635   5.896501   1.201035   0.000000
    15  H    8.647887   6.432144   1.915349   1.007804   0.000000
    16  H    8.647886   6.432143   1.915348   1.007802   1.745566
    17  H    5.227403   3.596865   3.300389   4.254685   4.335355
    18  Br   5.785180   4.495331   4.503277   5.298493   5.157752
    19  H    5.933704   4.562410   3.304019   4.259047   4.976509
    20  Br   6.793840   5.734883   4.507897   5.304461   6.017969
    21  H    4.411161   2.252301   3.298208   4.251316   4.969277
    22  Br   4.561422   2.748036   4.501044   5.294471   6.008344
                   16         17         18         19         20
    16  H    0.000000
    17  H    5.167295   0.000000
    18  Br   6.271193   1.401890   0.000000
    19  H    4.561857   3.923343   5.170962   0.000000
    20  Br   5.463553   5.171396   6.314861   1.402197   0.000000
    21  H    4.553967   3.923342   5.170961   3.924469   5.172435
    22  Br   5.452949   5.171396   6.314860   5.172435   6.316249
                   21         22
    21  H    0.000000
    22  Br   1.402198   0.000000
 Stoichiometry    C7H10Br3FO
 Framework group  C1[X(C7H10Br3FO)]
 Deg. of freedom    60
 Full point group                 C1      NOp   1
 Largest Abelian subgroup         C1      NOp   1
 Largest concise Abelian subgroup C1      NOp   1
                         Standard orientation:                         
 ---------------------------------------------------------------------
 Center     Atomic      Atomic             Coordinates (Angstroms)
 Number     Number       Type             X           Y           Z
 ---------------------------------------------------------------------
      1          6           0       -0.002572    0.000663    1.167434
      2          6           0       -1.135332    0.000850    1.819276
      3          6           0       -1.137201    0.001223    3.127140
      4          6           0       -0.004993    0.001410    3.782980
      5          6           0        1.129394    0.001222    3.130202
      6          6           0        1.131264    0.000849    1.821628
      7          9           0       -0.000573    0.000264   -0.231454
      8          1           0       -2.006418    0.000707    1.314694
      9          1           0       -2.009854    0.001368    3.629305
     10          1           0       -0.006432    0.001697    4.789840
     11          1           0        2.000607    0.001366    3.634859
     12          1           0        2.002928    0.000704    1.318045
     13          8           0        0.008316   -0.000535   -3.031697
     14          6           0        0.013527   -0.000878   -4.232721
     15          1           0        0.015030    0.871762   -4.736870
     16          1           0        0.015028   -0.873804   -4.736371
     17          1           0       -0.000000    2.264642   -0.631391
     18         35           0       -0.000347    3.645304   -0.388350
     19          1           0       -1.962236   -1.132746   -0.633455
     20         35           0       -3.158473   -1.823123   -0.391479
     21          1           0        1.962229   -1.132747   -0.627846
     22         35           0        3.157770   -1.823126   -0.382451
 ---------------------------------------------------------------------
 Rotational constants (GHZ):           0.1956705           0.1899881           0.1558642
 Standard basis: 6-311++G(d,p) (5D, 7F)
 There are   430 symmetry adapted cartesian basis functions of A   symmetry.
 There are   412 symmetry adapted basis functions of A   symmetry.
   412 basis functions,   696 primitive gaussians,   430 cartesian basis functions
    87 alpha electrons       87 beta electrons
       nuclear repulsion energy      1600.5986096767 Hartrees.
 NAtoms=   22 NActive=   22 NUniq=   22 SFac= 1.00D+00 NAtFMM=   60 NAOKFM=F Big=F
 Integral buffers will be    131072 words long.
 Raffenetti 2 integral format.
 Two-electron integral symmetry is turned on.
 ------------------------------------------------------------------------------
 Polarizable Continuum Model (PCM)
 =================================
 Model                : PCM.
 Atomic radii         : UFF (Universal Force Field).
 Polarization charges : Total charges.
 Charge compensation  : None.
 Solution method      : On-the-fly selection.
 Cavity type          : Scaled VdW (van der Waals Surface) (Alpha=1.100).
 Cavity algorithm     : GePol (No added spheres)
                        Default sphere list used, NSphG=   22.
                        Lebedev-Laikov grids with approx.  5.0 points / Ang**2.
                        Smoothing algorithm: York/Karplus (Gamma=1.0000).
                        Polarization charges: spherical gaussians, with
                                              point-specific exponents (IZeta= 3).
                        Self-potential: point-specific (ISelfS= 7).
                        Self-field    : sphere-specific E.n sum rule (ISelfD= 2).
 1st derivatives      : Analytical E(r).r(x)/FMM algorithm (CHGder, D1EAlg=3).
                        Cavity 1st derivative terms included.
 Solvent              : Water, Eps=  78.355300 Eps(inf)=   1.777849
 ------------------------------------------------------------------------------
 One-electron integrals computed using PRISM.
 NBasis=   412 RedAO= T EigKep=  3.31D-06  NBF=   412
 NBsUse=   411 1.00D-06 EigRej=  3.99D-07 NBFU=   411
 Initial guess from the checkpoint file:  "model_H3.chk"
 B after Tr=     0.000000    0.000000   -0.000000
         Rot=    1.000000    0.000143   -0.000358    0.000000 Ang=   0.04 deg.
 Requested convergence on RMS density matrix=1.00D-08 within 128 cycles.
 Requested convergence on MAX density matrix=1.00D-06.
 Requested convergence on             energy=1.00D-06.
 No special actions if energy rises.
 Inv3:  Mode=1 IEnd=    20311212.
 Iteration    1 A*A^-1 deviation from unit magnitude is 3.77D-15 for   2591.
 Iteration    1 A*A^-1 deviation from orthogonality  is 2.07D-15 for   2581   2420.
 Iteration    1 A^-1*A deviation from unit magnitude is 3.77D-15 for   2591.
 Iteration    1 A^-1*A deviation from orthogonality  is 1.72D-15 for   2581   2420.
 Error on total polarization charges =  0.02133
 SCF Done:  E(RM062X) =  -8170.17026197     A.U. after   10 cycles
            NFock= 10  Conv=0.97D-08     -V/T= 2.0010
 D1PCM: PCM CHGder 1st derivatives, ID1Alg=3 FixD1E=F DoIter=F DoCFld=F I1PDM=0.
 Calling FoFJK, ICntrl=      2127 FMM=F ISym2X=0 I1Cent= 0 IOpClX= 0 NMat=1 NMatS=1 NMatT=0.
 ***** Axes restored to original set *****
 -------------------------------------------------------------------
 Center     Atomic                   Forces (Hartrees/Bohr)
 Number     Number              X              Y              Z
 -------------------------------------------------------------------
      1        6          -0.070569795    0.000137258   -0.043409395
      2        6          -0.048827974    0.001195361    0.013215853
      3        6           0.003590766    0.000098991    0.032260700
      4        6           0.033944086   -0.000318278    0.019322997
      5        6           0.028719474    0.000099395   -0.013532197
      6        6          -0.014043819    0.001210264   -0.046780547
      7        9           0.018642068    0.000025173    0.010873675
      8        1          -0.055930674    0.002163832    0.032916885
      9        1          -0.001765003    0.000085166    0.066350277
     10        1           0.057783080    0.000003788    0.033339906
     11        1           0.056580919    0.000085775   -0.034712722
     12        1           0.000533721    0.002183728   -0.064817369
     13        8           0.015274521   -0.000029671    0.008797941
     14        6           0.055059372   -0.000001354    0.032106435
     15        1          -0.035502172    0.064015534   -0.020653065
     16        1          -0.035503562   -0.063997961   -0.020653879
     17        1          -0.002355115   -0.013435550   -0.001359394
     18       35           0.002129978    0.011541520    0.001227827
     19        1           0.002050077    0.005519173   -0.011578021
     20       35          -0.006165347   -0.008036170    0.009777348
     21        1          -0.008998611    0.005521660    0.007571382
     22       35           0.005354010   -0.008067635   -0.010264637
 -------------------------------------------------------------------
 Cartesian Forces:  Max     0.070569795 RMS     0.028749913
 -----------------------------------------------------------------------------------------------
                       Internal Coordinate Forces (Hartree/Bohr or radian)
  Cent   Atom   N1       Length/X         N2         Alpha/Y        N3         Beta/Z          J
 -----------------------------------------------------------------------------------------------
      1  C 
      2  C        1   0.037993(     1)
      3  C        2   0.139337(     2)      1   0.150592(    22)
      4  C        3   0.195201(     3)      2   0.373676(    23)      1   0.011220(    42)     0
      5  C        4   0.159414(     4)      3   0.396443(    24)      2   0.015056(    43)     0
      6  C        5   0.067069(     5)      4   0.218306(    25)      3   0.007396(    44)     0
      7  F        1  -0.011570(     6)      2  -0.000366(    26)      3   0.003712(    45)     0
      8  H        2   0.064896(     7)      3  -0.001030(    27)      4   0.003565(    46)     0
      9  H        3   0.066350(     8)      4   0.003358(    28)      5   0.000140(    47)     0
     10  H        4   0.066712(     9)      5  -0.000035(    29)      6   0.000006(    48)     0
     11  H        5   0.066357(    10)      6  -0.003371(    30)      1   0.000141(    49)     0
     12  H        6   0.064816(    11)      1   0.001226(    31)      2   0.003598(    50)     0
     13  O        7   0.000783(    12)      1  -0.000061(    32)      3   0.000000(    51)     0
     14  C       13   0.018410(    13)      1   0.000103(    33)      2  -0.000000(    52)     0
     15  H       14   0.075975(    14)      1   0.006784(    34)      2   0.000118(    53)     0
     16  H       14   0.075961(    15)      1   0.006803(    35)      2  -0.000118(    54)     0
     17  H        7  -0.001820(    16)      1   0.001440(    36)      2   0.000010(    55)     0
     18  Br      17   0.011793(    17)      7  -0.001105(    37)      1   0.000002(    56)     0
     19  H        7   0.002439(    18)      1   0.025466(    38)      2  -0.011358(    57)     0
     20  Br      19   0.013730(    19)      7   0.007627(    39)      1  -0.001073(    58)     0
     21  H        7   0.002471(    20)      1   0.025744(    40)      2   0.011489(    59)     0
     22  Br      21   0.013751(    21)      7   0.007758(    41)      1   0.001091(    60)     0
 -----------------------------------------------------------------------------------------------
 Internal  Forces:  Max     0.396443041 RMS     0.090598555

 GradGradGradGradGradGradGradGradGradGradGradGradGradGradGradGradGradGrad
 Berny optimization.
 Search for a local minimum.
 Step number   2 out of a maximum of   50
 All quantities printed in internal units (Hartrees-Bohrs-Radians)
 Update second derivatives using D2CorN and points    1    2
 ITU=  0  0
 Linear search step of   0.100 exceeds DXMaxT=   0.050 scaled by   1.000
 Quartic linear search produced a step of  2.00000.
 Variable       Old X    -DE/DX   Delta X   Delta X   Delta X     New X
                                 (Linear)    (Quad)   (Total)
    d1        2.46972   0.03799   0.02616   0.00000   0.02616   2.49588
    d2        2.47151   0.13934   0.02972   0.00000   0.02972   2.50123
    d3        2.47260   0.19520   0.03191   0.00000   0.03191   2.50451
    d4        2.47327   0.15941   0.03325   0.00000   0.03325   2.50652
    d5        2.47285   0.06707   0.03241   0.00000   0.03241   2.50526
    d6        2.64352  -0.01157  -0.00420   0.00000  -0.00420   2.63932
    d7        1.90234   0.06490   0.02523   0.00000   0.02523   1.92757
    d8        1.90262   0.06635   0.02579   0.00000   0.02579   1.92841
    d9        1.90269   0.06671   0.02593   0.00000   0.02593   1.92862
   d10        1.90262   0.06636   0.02579   0.00000   0.02579   1.92841
   d11        1.90234   0.06482   0.02523   0.00000   0.02523   1.92757
   d12        5.29172   0.00078   0.00097   0.00000   0.00097   5.29269
   d13        2.26963   0.01841   0.00391   0.00000   0.00391   2.27354
   d14        1.90447   0.07598   0.02949   0.00000   0.02949   1.93397
   d15        1.90447   0.07596   0.02949   0.00000   0.02949   1.93396
   d16        4.34529  -0.00182  -0.00217   0.00000  -0.00217   4.34312
   d17        2.64919   0.01179   0.00714   0.00000   0.00714   2.65633
   d18        4.34778   0.00244   0.00283   0.00000   0.00283   4.35061
   d19        2.64977   0.01373   0.00830   0.00000   0.00830   2.65807
   d20        4.34778   0.00247   0.00282   0.00000   0.00282   4.35060
   d21        2.64977   0.01375   0.00831   0.00000   0.00831   2.65808
         Item               Value     Threshold  Converged?
 Maximum Force            0.195201     0.002500     NO 
 RMS     Force            0.076560     0.001667     NO 
 Maximum Displacement     0.033251     0.010000     NO 
 RMS     Displacement     0.021822     0.006667     NO 
 Predicted change in Energy=-2.829936D-02
 GradGradGradGradGradGradGradGradGradGradGradGradGradGradGradGradGradGrad

 ---------------------------------------------------------------------------------------------------
                            Z-MATRIX (ANGSTROMS AND DEGREES)
   CD    Cent   Atom    N1       Length/X        N2       Alpha/Y        N3        Beta/Z          J
 ---------------------------------------------------------------------------------------------------
      1      1  C 
      2      2  C        1   1.320764(     1)
      3      3  C        2   1.323594(     2)      1  120.000(    22)
      4      4  C        3   1.325328(     3)      2  120.000(    23)      1    0.000(    42)      0
      5      5  C        4   1.326393(     4)      3  120.000(    24)      2    0.000(    43)      0
      6      6  C        5   1.325724(     5)      4  120.000(    25)      3    0.000(    44)      0
      7      7  F        1   1.396669(     6)      2  120.000(    26)      3  180.000(    45)      0
      8      8  H        2   1.020025(     7)      3  120.000(    27)      4  180.000(    46)      0
      9      9  H        3   1.020468(     8)      4  120.000(    28)      5  180.000(    47)      0
     10     10  H        4   1.020583(     9)      5  120.000(    29)      6  180.000(    48)      0
     11     11  H        5   1.020468(    10)      6  120.000(    30)      1  180.000(    49)      0
     12     12  H        6   1.020026(    11)      1  120.000(    31)      2  180.000(    50)      0
     13     13  O        7   2.800772(    12)      1  179.900(    32)      3  180.000(    51)      0
     14     14  C       13   1.203106(    13)      1  179.900(    33)      2  180.000(    52)      0
     15     15  H       14   1.023411(    14)      1  120.000(    34)      2   90.000(    53)      0
     16     16  H       14   1.023407(    15)      1  120.000(    35)      2  -90.000(    54)      0
     17     17  H        7   2.298278(    16)      1  100.000(    36)      2   90.000(    55)      0
     18     18  Br      17   1.405670(    17)      7  160.000(    37)      1    0.000(    56)      0
     19     19  H        7   2.302243(    18)      1  100.000(    38)      2  -30.000(    57)      0
     20     20  Br      19   1.406591(    19)      7  160.000(    39)      1    0.000(    58)      0
     21     21  H        7   2.302239(    20)      1  100.000(    40)      2 -150.000(    59)      0
     22     22  Br      21   1.406593(    21)      7  160.000(    41)      1    0.000(    60)      0
 ---------------------------------------------------------------------------------------------------
                         Z-Matrix orientation:                         
 ---------------------------------------------------------------------
 Center     Atomic      Atomic             Coordinates (Angstroms)
 Number     Number       Type             X           Y           Z
 ---------------------------------------------------------------------
      1          6           0        0.000000    0.000000    0.000000
      2          6           0        0.000000    0.000000    1.320764
      3          6           0        1.146266    0.000000    1.982561
      4          6           0        2.294034    0.000000    1.319897
      5          6           0        2.294034    0.000000   -0.006496
      6          6           0        1.145923    0.000000   -0.669359
      7          9           0       -1.209551   -0.000000   -0.698334
      8          1           0       -0.883368   -0.000000    1.830776
      9          1           0        1.146266   -0.000000    3.003029
     10          1           0        3.177885   -0.000000    1.830188
     11          1           0        3.177786   -0.000000   -0.516731
     12          1           0        1.140758   -0.000000   -1.689371
     13          8           0       -3.632642   -0.000000   -2.102952
     14          6           0       -4.672808   -0.000000   -2.707534
     15          1           0       -5.115560    0.886300   -2.964075
     16          1           0       -5.115558   -0.886296   -2.964074
     17          1           0       -1.555174    2.263362   -0.897880
     18         35           0       -1.343784    3.647677   -0.775834
     19          1           0       -2.537526   -1.133633    0.802225
     20         35           0       -2.925816   -1.826244    1.963267
     21          1           0       -0.574016   -1.133631   -2.598671
     22         35           0        0.237332   -1.826243   -3.515463
 ---------------------------------------------------------------------
                    Distance matrix (angstroms):
                    1          2          3          4          5
     1  C    0.000000
     2  C    1.320764   0.000000
     3  C    2.290082   1.323594   0.000000
     4  C    2.646643   2.294034   1.325328   0.000000
     5  C    2.294043   2.650323   2.296458   1.326393   0.000000
     6  C    1.327095   2.296459   2.651919   2.296801   1.325724
     7  F    1.396669   2.353671   3.568904   4.043311   3.571239
     8  H    2.032752   1.020025   2.035302   3.218211   3.670348
     9  H    3.214360   2.035668   1.020468   2.037230   3.220965
    10  H    3.667225   3.218457   2.037324   1.020583   2.038284
    11  H    3.219524   3.670791   3.220796   2.038190   1.020468
    12  H    2.038456   3.219043   3.671936   3.222691   2.040126
    13  O    4.197439   4.991785   6.287240   6.844077   6.286543
    14  C    5.400544   6.169467   7.473862   8.047179   7.472114
    15  H    5.978313   6.731592   8.029023   8.604652   8.027134
    16  H    5.978310   6.731589   8.029020   8.604649   8.027132
    17  H    2.889215   3.530404   4.551651   4.985754   4.553435
    18  Br   3.963990   4.416676   5.207172   5.561597   5.208757
    19  H    2.892702   2.827197   4.030960   4.989697   5.028233
    20  Br   3.968625   3.508329   4.462891   5.567398   5.870432
    21  H    2.892699   4.120265   5.023164   4.986583   4.028673
    22  Br   3.968623   5.174995   5.864264   5.562903   4.458479
                    6          7          8          9         10
     6  C    0.000000
     7  F    2.355652   0.000000
     8  H    3.220046   2.550058   0.000000
     9  H    3.672388   4.387478   2.343841   0.000000
    10  H    3.221273   5.063893   4.061253   2.345853   0.000000
    11  H    2.037587   4.391093   4.690816   4.063961   2.346919
    12  H    1.020026   2.550707   4.060606   4.692403   4.066593
    13  O    4.988976   2.800772   4.799242   6.993498   7.864660
    14  C    6.165371   4.003878   5.912370   8.153046   9.067762
    15  H    6.727364   4.601741   6.456592   8.694960   9.620380
    16  H    6.727361   4.601738   6.456589   8.694958   9.620378
    17  H    3.531424   2.298278   3.608282   5.257155   5.913291
    18  Br   4.417638   3.650968   4.506878   5.812547   6.367291
    19  H    4.125346   2.302243   2.253726   4.438354   5.916734
    20  Br   5.181211   3.655798   2.743048   4.582371   6.372443
    21  H    2.822332   2.302239   4.582666   5.968546   5.914108
    22  Br   3.501573   3.655796   5.759636   6.830232   6.368516
                   11         12         13         14         15
    11  H    0.000000
    12  H    2.350440   0.000000
    13  O    6.992712   4.791284   0.000000
    14  C    8.150549   5.902051   1.203106   0.000000
    15  H    8.692215   6.446078   1.930312   1.023411   0.000000
    16  H    8.692213   6.446075   1.930309   1.023407   1.772596
    17  H    5.260132   3.607952   3.300133   4.256442   4.340715
    18  Br   5.815262   4.507000   4.506180   5.302774   5.161385
    19  H    5.974073   4.585079   3.305217   4.261803   4.991133
    20  Br   6.836630   5.763155   4.513193   5.310700   6.035858
    21  H    4.437974   2.247754   3.299402   4.254065   4.983900
    22  Br   4.579719   2.736047   4.506335   5.300697   6.026224
                   16         17         18         19         20
    16  H    0.000000
    17  H    5.183226   0.000000
    18  Br   6.290595   1.405670   0.000000
    19  H    4.570825   3.923639   5.174574   0.000000
    20  Br   5.473314   5.175876   6.322128   1.406591   0.000000
    21  H    4.562926   3.923636   5.174571   3.927017   5.178992
    22  Br   5.462688   5.175875   6.322127   5.178993   6.326293
                   21         22
    21  H    0.000000
    22  Br   1.406593   0.000000
 Stoichiometry    C7H10Br3FO
 Framework group  C1[X(C7H10Br3FO)]
 Deg. of freedom    60
 Full point group                 C1      NOp   1
 Largest Abelian subgroup         C1      NOp   1
 Largest concise Abelian subgroup C1      NOp   1
                         Standard orientation:                         
 ---------------------------------------------------------------------
 Center     Atomic      Atomic             Coordinates (Angstroms)
 Number     Number       Type             X           Y           Z
 ---------------------------------------------------------------------
      1          6           0       -0.001722    0.002005    1.161989
      2          6           0       -1.145678    0.002591    1.822126
      3          6           0       -1.145961    0.003748    3.145720
      4          6           0        0.001664    0.004318    3.808629
      5          6           0        1.150496    0.003729    3.145678
      6          6           0        1.150780    0.002571    1.819954
      7          9           0       -0.001424    0.000785   -0.234679
      8          1           0       -2.028937    0.002153    1.311924
      9          1           0       -2.029822    0.004201    3.655765
     10          1           0        0.001446    0.005210    4.829211
     11          1           0        2.034139    0.004168    3.656101
     12          1           0        2.031664    0.002115    1.305664
     13          8           0        0.004064   -0.001662   -3.035445
     14          6           0        0.007822   -0.002714   -4.238545
     15          1           0        0.008733    0.883139   -4.751024
     16          1           0        0.008719   -0.889457   -4.749473
     17          1           0       -0.001320    2.263797   -0.635749
     18         35           0       -0.001361    3.648325   -0.392866
     19          1           0       -1.964857   -1.133182   -0.633889
     20         35           0       -3.164552   -1.825570   -0.389289
[...]
     22         35           0        3.685204   -1.942010   -0.000068
 ---------------------------------------------------------------------
 Rotational constants (GHZ):           0.1802978           0.1518597           0.1307524

 **********************************************************************

            Population analysis using the SCF Density.

 **********************************************************************

 Orbital symmetries:
       Occupied  (A) (A) (A) (A) (A) (A) (A) (A) (A) (A) (A) (A)
                 (A) (A) (A) (A) (A) (A) (A) (A) (A) (A) (A) (A)
                 (A) (A) (A) (A) (A) (A) (A) (A) (A) (A) (A) (A)
                 (A) (A) (A) (A) (A) (A) (A) (A) (A) (A) (A) (A)
                 (A) (A) (A) (A) (A) (A) (A) (A) (A) (A) (A) (A)
                 (A) (A) (A) (A) (A) (A) (A) (A) (A) (A) (A) (A)
                 (A) (A) (A) (A) (A) (A) (A) (A) (A) (A) (A) (A)
                 (A) (A) (A)
       Virtual   (A) (A) (A) (A) (A) (A) (A) (A) (A) (A) (A) (A)
                 (A) (A) (A) (A) (A) (A) (A) (A) (A) (A) (A) (A)
                 (A) (A) (A) (A) (A) (A) (A) (A) (A) (A) (A) (A)
                 (A) (A) (A) (A) (A) (A) (A) (A) (A) (A) (A) (A)
                 (A) (A) (A) (A) (A) (A) (A) (A) (A) (A) (A) (A)
                 (A) (A) (A) (A) (A) (A) (A) (A) (A) (A) (A) (A)
                 (A) (A) (A) (A) (A) (A) (A) (A) (A) (A) (A) (A)
                 (A) (A) (A) (A) (A) (A) (A) (A) (A) (A) (A) (A)
                 (A) (A) (A) (A) (A) (A) (A) (A) (A) (A) (A) (A)
                 (A) (A) (A) (A) (A) (A) (A) (A) (A) (A) (A) (A)
                 (A) (A) (A) (A) (A) (A) (A) (A) (A) (A) (A) (A)
                 (A) (A) (A) (A) (A) (A) (A) (A) (A) (A) (A) (A)
                 (A) (A) (A) (A) (A) (A) (A) (A) (A) (A) (A) (A)
                 (A) (A) (A) (A) (A) (A) (A) (A) (A) (A) (A) (A)
                 (A) (A) (A) (A) (A) (A) (A) (A) (A) (A) (A) (A)
                 (A) (A) (A) (A) (A) (A) (A) (A) (A) (A) (A) (A)
                 (A) (A) (A) (A) (A) (A) (A) (A) (A) (A) (A) (A)
                 (A) (A) (A) (A) (A) (A) (A) (A) (A) (A) (A) (A)
                 (A) (A) (A) (A) (A) (A) (A) (A) (A) (A) (A) (A)
                 (A) (A) (A) (A) (A) (A) (A) (A) (A) (A) (A) (A)
                 (A) (A) (A) (A) (A) (A) (A) (A) (A) (A) (A) (A)
                 (A) (A) (A) (A) (A) (A) (A) (A) (A) (A) (A) (A)
                 (A) (A) (A) (A) (A) (A) (A) (A) (A) (A) (A) (A)
                 (A) (A) (A) (A) (A) (A) (A) (A) (A) (A) (A) (A)
                 (A) (A) (A) (A) (A) (A) (A) (A) (A) (A) (A) (A)
                 (A) (A) (A) (A) (A) (A) (A) (A) (A) (A) (A) (A)
                 (A) (A) (A) (A) (A) (A) (A) (A) (A) (A) (A) (A)
 The electronic state is 1-A.
 Alpha  occ. eigenvalues -- -485.34592-485.34586-485.34239 -63.33813 -63.33808
 Alpha  occ. eigenvalues --  -63.33464 -57.16544 -57.16539 -57.16309 -57.16308
 Alpha  occ. eigenvalues --  -57.16304 -57.16303 -57.16189 -57.15963 -57.15963
 Alpha  occ. eigenvalues --  -25.27671 -19.64606 -10.64387 -10.63913 -10.56336
 Alpha  occ. eigenvalues --  -10.56229 -10.56111 -10.56007 -10.55429  -9.02525
 Alpha  occ. eigenvalues --   -9.02519  -9.02177  -6.85286  -6.85280  -6.84916
 Alpha  occ. eigenvalues --   -6.84318  -6.84314  -6.84312  -6.84308  -6.83982
 Alpha  occ. eigenvalues --   -6.83981  -2.88464  -2.88459  -2.88096  -2.88086
 Alpha  occ. eigenvalues --   -2.88082  -2.88080  -2.88076  -2.87728  -2.87727
 Alpha  occ. eigenvalues --   -2.87242  -2.87241  -2.87237  -2.87237  -2.86917
 Alpha  occ. eigenvalues --   -2.86917  -1.39300  -1.19276  -0.98357  -0.88500
 Alpha  occ. eigenvalues --   -0.88485  -0.88145  -0.86662  -0.86197  -0.72282
 Alpha  occ. eigenvalues --   -0.72212  -0.71695  -0.64416  -0.59537  -0.59057
 Alpha  occ. eigenvalues --   -0.58479  -0.58315  -0.53975  -0.52773  -0.51421
 Alpha  occ. eigenvalues --   -0.50547  -0.50209  -0.49869  -0.49734  -0.47807
 Alpha  occ. eigenvalues --   -0.45185  -0.44164  -0.42039  -0.37015  -0.37008
 Alpha  occ. eigenvalues --   -0.36996  -0.36961  -0.36794  -0.36758  -0.34905
 Alpha  occ. eigenvalues --   -0.32776  -0.31850
 Alpha virt. eigenvalues --   -0.00863  -0.00820  -0.00002   0.00589   0.00642
 Alpha virt. eigenvalues --    0.00845   0.01418   0.01698   0.02408   0.02886
 Alpha virt. eigenvalues --    0.03278   0.03642   0.03957   0.04300   0.05273
 Alpha virt. eigenvalues --    0.05521   0.05570   0.05872   0.06729   0.06888
 Alpha virt. eigenvalues --    0.07214   0.07371   0.07949   0.08105   0.08252
 Alpha virt. eigenvalues --    0.08963   0.09850   0.10567   0.10856   0.11627
 Alpha virt. eigenvalues --    0.12291   0.12612   0.13202   0.13276   0.13639
 Alpha virt. eigenvalues --    0.13888   0.13976   0.14877   0.15113   0.15341
 Alpha virt. eigenvalues --    0.15485   0.15713   0.16399   0.16592   0.16784
 Alpha virt. eigenvalues --    0.17906   0.18291   0.18764   0.19522   0.20046
 Alpha virt. eigenvalues --    0.20382   0.20831   0.21386   0.22071   0.22742
 Alpha virt. eigenvalues --    0.23413   0.24377   0.24785   0.25857   0.27299
 Alpha virt. eigenvalues --    0.29115   0.30537   0.31203   0.31757   0.32331
 Alpha virt. eigenvalues --    0.32425   0.33218   0.34062   0.36327   0.37115
 Alpha virt. eigenvalues --    0.37416   0.37777   0.40429   0.40744   0.41653
 Alpha virt. eigenvalues --    0.42204   0.44112   0.44824   0.45491   0.45699
 Alpha virt. eigenvalues --    0.46611   0.46797   0.47136   0.48319   0.48421
 Alpha virt. eigenvalues --    0.49674   0.50173   0.51304   0.51499   0.52664
 Alpha virt. eigenvalues --    0.53049   0.55224   0.56331   0.56832   0.57811
 Alpha virt. eigenvalues --    0.58355   0.59373   0.59594   0.60352   0.61309
 Alpha virt. eigenvalues --    0.61742   0.62564   0.63306   0.63350   0.64329
 Alpha virt. eigenvalues --    0.64842   0.65067   0.66442   0.66526   0.66909
 Alpha virt. eigenvalues --    0.67358   0.68105   0.68862   0.69556   0.70250
 Alpha virt. eigenvalues --    0.70383   0.71293   0.72192   0.72512   0.73425
 Alpha virt. eigenvalues --    0.74020   0.74713   0.77079   0.77357   0.78709
 Alpha virt. eigenvalues --    0.81190   0.82183   0.83442   0.84286   0.88068
 Alpha virt. eigenvalues --    0.88192   0.89171   0.91723   0.92963   0.93409
 Alpha virt. eigenvalues --    0.94705   0.95387   0.95581   0.95703   1.00079
 Alpha virt. eigenvalues --    1.03612   1.04527   1.05288   1.05730   1.06785
 Alpha virt. eigenvalues --    1.09995   1.12425   1.15195   1.16599   1.17787
 Alpha virt. eigenvalues --    1.18027   1.22480   1.23716   1.30858   1.33936
 Alpha virt. eigenvalues --    1.39978   1.44660   1.45288   1.45659   1.46440
 Alpha virt. eigenvalues --    1.46916   1.47272   1.49022   1.49874   1.51070
 Alpha virt. eigenvalues --    1.52657   1.54478   1.56247   1.59354   1.60016
 Alpha virt. eigenvalues --    1.60231   1.60937   1.64290   1.64846   1.68204
 Alpha virt. eigenvalues --    1.68702   1.69316   1.71304   1.72787   1.77098
 Alpha virt. eigenvalues --    1.77584   1.78148   1.79987   1.86314   1.86856
 Alpha virt. eigenvalues --    1.90251   1.91626   1.94528   1.94793   1.96216
 Alpha virt. eigenvalues --    1.97651   1.98899   1.99699   2.01676   2.02278
 Alpha virt. eigenvalues --    2.02719   2.03175   2.03870   2.04226   2.04508
 Alpha virt. eigenvalues --    2.05784   2.06038   2.06915   2.07206   2.08009
 Alpha virt. eigenvalues --    2.09009   2.11251   2.11602   2.12203   2.17638
 Alpha virt. eigenvalues --    2.19510   2.30760   2.30772   2.34986   2.44060
 Alpha virt. eigenvalues --    2.44695   2.47761   2.48820   2.51715   2.52828
 Alpha virt. eigenvalues --    2.52903   2.57865   2.58777   2.62549   2.65149
 Alpha virt. eigenvalues --    2.67442   2.70028   2.72236   2.73381   2.73703
 Alpha virt. eigenvalues --    2.74505   2.75672   2.76227   2.76727   2.85191
 Alpha virt. eigenvalues --    2.85643   2.86550   2.88962   2.94359   2.94914
 Alpha virt. eigenvalues --    2.95596   2.98062   2.98491   3.13984   3.18830
 Alpha virt. eigenvalues --    3.25331   3.38910   3.39450   3.42557   3.48262
 Alpha virt. eigenvalues --    3.53121   3.55602   3.56361   3.66113   3.74538
 Alpha virt. eigenvalues --    3.78710   3.86579   3.93292   3.98823   4.02678
 Alpha virt. eigenvalues --    4.05524   4.08751   4.16031   4.19064   4.19774
 Alpha virt. eigenvalues --    4.27616   4.27703   4.27743   4.27994   4.28437
 Alpha virt. eigenvalues --    4.28625   4.32014   4.32052   4.33549   4.33838
 Alpha virt. eigenvalues --    4.34019   4.35287   4.47968   4.48238   4.50841
 Alpha virt. eigenvalues --    4.85667   4.94289   5.10985   5.21263   5.78740
 Alpha virt. eigenvalues --    6.51797   6.61867   6.79157   6.79282   6.85179
 Alpha virt. eigenvalues --    6.91067   7.61703   7.62465   7.63816   7.64276
 Alpha virt. eigenvalues --    7.64437   7.64990   7.66092   7.66636   7.67284
 Alpha virt. eigenvalues --   23.67305  23.99911  24.01164  24.05067  24.15187
 Alpha virt. eigenvalues --   24.16820  24.26994  48.32145  48.32653  48.37630
 Alpha virt. eigenvalues --   50.04347  66.94077 290.76265 290.77096 290.78656
 Alpha virt. eigenvalues --  290.79008 290.79241 290.80169 290.82896 290.83726
 Alpha virt. eigenvalues --  290.844951020.870501020.876271020.93871
          Condensed to atoms (all electrons):
               1          2          3          4          5          6
     1  C   11.100239  -0.926876  -1.547855  -0.447230  -1.354624  -0.641677
     2  C   -0.926876  12.216904   0.595656  -0.734173   0.052349  -5.395269
     3  C   -1.547855   0.595656   6.627459   0.698276  -0.379221  -0.105049
     4  C   -0.447230  -0.734173   0.698276   6.365001   0.635971  -0.607916
     5  C   -1.354624   0.052349  -0.379221   0.635971   6.516951   0.432782
     6  C   -0.641677  -5.395269  -0.105049  -0.607916   0.432782  12.113769
     7  F    0.442503  -0.215622  -0.016036   0.014876  -0.012686  -0.206202
     8  H   -0.331464   0.471147   0.107736   0.055571   0.048320  -0.115633
     9  H    0.036597  -0.009407   0.370939  -0.100940  -0.015484   0.044441
    10  H    0.029449  -0.008479  -0.060193   0.441337  -0.059666  -0.006150
    11  H    0.035721   0.047278  -0.015244  -0.102310   0.375845  -0.016040
    12  H   -0.310847  -0.124139   0.043137   0.056752   0.083581   0.484751
    13  O    0.016616  -0.006152  -0.000299  -0.000193  -0.000254  -0.006264
    14  C   -0.002580   0.000692   0.000211   0.000167   0.000241   0.001313
    15  H    0.000770  -0.000233  -0.000059  -0.000031  -0.000063  -0.000331
    16  H   -0.001235   0.000391   0.000080   0.000008   0.000079   0.000430
    17  H   -0.070569   0.018846   0.004450  -0.008608   0.002164   0.014740
    18  Br   0.209893  -0.060569  -0.025938   0.012350  -0.022345  -0.056405
    19  H   -0.076484   0.127010   0.004580   0.007289   0.000138  -0.089543
    20  Br   0.009171  -0.159064   0.068914   0.005410   0.007057   0.042987
    21  H   -0.072981  -0.088931  -0.000972   0.007880   0.000646   0.126070
    22  Br   0.009988   0.042882   0.007502   0.004422   0.064084  -0.154031
               7          8          9         10         11         12
     1  C    0.442503  -0.331464   0.036597   0.029449   0.035721  -0.310847
     2  C   -0.215622   0.471147  -0.009407  -0.008479   0.047278  -0.124139
     3  C   -0.016036   0.107736   0.370939  -0.060193  -0.015244   0.043137
     4  C    0.014876   0.055571  -0.100940   0.441337  -0.102310   0.056752
     5  C   -0.012686   0.048320  -0.015484  -0.059666   0.375845   0.083581
     6  C   -0.206202  -0.115633   0.044441  -0.006150  -0.016040   0.484751
     7  F    9.160158  -0.000840  -0.001121   0.000895  -0.001136  -0.001531
     8  H   -0.000840   0.646881  -0.019461   0.000438   0.001487  -0.003667
     9  H   -0.001121  -0.019461   0.449045  -0.008462   0.001289   0.001421
    10  H    0.000895   0.000438  -0.008462   0.458408  -0.008396   0.000540
    11  H   -0.001136   0.001487   0.001289  -0.008396   0.448610  -0.018995
    12  H   -0.001531  -0.003667   0.001421   0.000540  -0.018995   0.649037
    13  O    0.005124   0.001108   0.000006  -0.000001   0.000007   0.001129
    14  C    0.002082   0.000260  -0.000021   0.000005  -0.000022   0.000269
    15  H   -0.000144  -0.000014   0.000002  -0.000001   0.000002  -0.000012
    16  H   -0.000188  -0.000047   0.000000  -0.000000   0.000000  -0.000050
    17  H   -0.018858   0.002850   0.001387  -0.000646   0.001430   0.002684
    18  Br  -0.002528   0.000344  -0.001942   0.001038  -0.001966   0.000292
    19  H   -0.023100   0.005226  -0.000464   0.000099  -0.000204   0.000794
    20  Br   0.009306   0.055996  -0.002514  -0.000232   0.000211  -0.001557
    21  H   -0.021964   0.000800  -0.000203   0.000100  -0.000561   0.006387
    22  Br   0.008890  -0.001520   0.000213  -0.000226  -0.002367   0.055493
              13         14         15         16         17         18
     1  C    0.016616  -0.002580   0.000770  -0.001235  -0.070569   0.209893
     2  C   -0.006152   0.000692  -0.000233   0.000391   0.018846  -0.060569
     3  C   -0.000299   0.000211  -0.000059   0.000080   0.004450  -0.025938
     4  C   -0.000193   0.000167  -0.000031   0.000008  -0.008608   0.012350
     5  C   -0.000254   0.000241  -0.000063   0.000079   0.002164  -0.022345
     6  C   -0.006264   0.001313  -0.000331   0.000430   0.014740  -0.056405
     7  F    0.005124   0.002082  -0.000144  -0.000188  -0.018858  -0.002528
     8  H    0.001108   0.000260  -0.000014  -0.000047   0.002850   0.000344
     9  H    0.000006  -0.000021   0.000002   0.000000   0.001387  -0.001942
    10  H   -0.000001   0.000005  -0.000001  -0.000000  -0.000646   0.001038
    11  H    0.000007  -0.000022   0.000002   0.000000   0.001430  -0.001966
    12  H    0.001129   0.000269  -0.000012  -0.000050   0.002684   0.000292
    13  O    8.175290   0.266232  -0.083151  -0.085926   0.011754  -0.006049
    14  C    0.266232   4.898148   0.400306   0.401514  -0.002666   0.000316
    15  H   -0.083151   0.400306   0.646427  -0.099587   0.001356  -0.000136
    16  H   -0.085926   0.401514  -0.099587   0.646264  -0.000097   0.000076
    17  H    0.011754  -0.002666   0.001356  -0.000097   0.643371   0.221628
    18  Br  -0.006049   0.000316  -0.000136   0.000076   0.221628  34.874433
    19  H    0.005204   0.000702  -0.000058   0.000135   0.004507  -0.003851
    20  Br  -0.002976  -0.000536  -0.000011  -0.000119  -0.002431   0.001674
    21  H    0.005199   0.000719  -0.000055   0.000122   0.004559  -0.003840
    22  Br  -0.002959  -0.000532  -0.000011  -0.000116  -0.002510   0.001706
              19         20         21         22
     1  C   -0.076484   0.009171  -0.072981   0.009988
     2  C    0.127010  -0.159064  -0.088931   0.042882
     3  C    0.004580   0.068914  -0.000972   0.007502
     4  C    0.007289   0.005410   0.007880   0.004422
     5  C    0.000138   0.007057   0.000646   0.064084
     6  C   -0.089543   0.042987   0.126070  -0.154031
     7  F   -0.023100   0.009306  -0.021964   0.008890
     8  H    0.005226   0.055996   0.000800  -0.001520
     9  H   -0.000464  -0.002514  -0.000203   0.000213
    10  H    0.000099  -0.000232   0.000100  -0.000226
    11  H   -0.000204   0.000211  -0.000561  -0.002367
    12  H    0.000794  -0.001557   0.006387   0.055493
    13  O    0.005204  -0.002976   0.005199  -0.002959
    14  C    0.000702  -0.000536   0.000719  -0.000532
    15  H   -0.000058  -0.000011  -0.000055  -0.000011
    16  H    0.000135  -0.000119   0.000122  -0.000116
    17  H    0.004507  -0.002431   0.004559  -0.002510
    18  Br  -0.003851   0.001674  -0.003840   0.001706
    19  H    0.631436   0.234866  -0.006592   0.003471
    20  Br   0.234866  34.873203   0.003464  -0.001485
    21  H   -0.006592   0.003464   0.630717   0.235695
    22  Br   0.003471  -0.001485   0.235695  34.872094
 Mulliken charges:
               1
     1  C   -0.106526
     2  C    0.155760
     3  C   -0.378075
     4  C   -0.303910
     5  C   -0.375865
     6  C    0.139227
     7  F   -0.121878
     8  H    0.074483
     9  H    0.254677
    10  H    0.220142
    11  H    0.255363
    12  H    0.074531
    13  O   -0.293447
    14  C    0.033179
    15  H    0.135032
    16  H    0.138263
    17  H    0.170660
    18  Br  -0.138180
    19  H    0.174838
    20  Br  -0.141333
    21  H    0.173739
    22  Br  -0.140682
 Sum of Mulliken charges =  -0.00000
 Mulliken charges with hydrogens summed into heavy atoms:
               1
     1  C   -0.106526
     2  C    0.230243
     3  C   -0.123397
     4  C   -0.083767
     5  C   -0.120502
     6  C    0.213759
     7  F   -0.121878
    13  O   -0.293447
    14  C    0.306474
    18  Br   0.032480
    20  Br   0.033505
    22  Br   0.033057
 Electronic spatial extent (au):  <R**2>=           8667.4887
 Charge=              0.0000 electrons
 Dipole moment (field-independent basis, Debye):
    X=              0.0070    Y=             -0.5211    Z=             -1.2018  Tot=              1.3099
 Quadrupole moment (field-independent basis, Debye-Ang):
   XX=           -114.6925   YY=           -121.8792   ZZ=            -77.7964
   XY=              0.1228   XZ=             -0.3419   YZ=              9.4848
 Traceless Quadrupole moment (field-independent basis, Debye-Ang):
   XX=             -9.9031   YY=            -17.0898   ZZ=             26.9930
   XY=              0.1228   XZ=             -0.3419   YZ=              9.4848
 Octapole moment (field-independent basis, Debye-Ang**2):
  XXX=             -0.6446  YYY=            -31.0986  ZZZ=           -149.3580  XYY=              0.7602
  XXY=              7.8837  XXZ=              2.8889  XZZ=              0.2021  YZZ=            -17.4705
  YYZ=            -26.9824  XYZ=              0.4972
 Hexadecapole moment (field-independent basis, Debye-Ang**3):
 XXXX=          -3421.2296 YYYY=          -2617.0219 ZZZZ=          -1973.6127 XXXY=              1.0725
 XXXZ=              1.8140 YYYX=             -0.6492 YYYZ=           -106.3406 ZZZX=             -3.8013
 ZZZY=            122.2942 XXYY=          -1021.2744 XXZZ=          -1029.2841 YYZZ=           -921.8090
 XXYZ=            -36.3177 YYXZ=              0.4988 ZZXY=              0.1473
 N-N= 1.491762877669D+03 E-N=-2.249283630562D+04  KE= 8.159521010851D+03
 1\1\GINC-R820\POpt\RM062X\6-311++G(d,p)\C7H10Br3F1O1\ZJXU\09-Apr-2024\
 1\\# m062x 6-311++G(d,p) opt=(maxstep=5,notrust,z-matrix,loose,maxcyc=
 50) scrf=(solvent=water)\\test\\0,1\C\C,1,d1\C,2,d2,1,120.\C,3,d3,2,12
 0.,1,0.,0\C,4,d4,3,120.,2,0.,0\C,5,d5,4,120.,3,0.,0\F,1,d6,2,120.,3,18
 0.,0\H,2,d7,3,120.,4,180.,0\H,3,d8,4,120.,5,180.,0\H,4,d9,5,120.,6,180
 .,0\H,5,d10,6,120.,1,180.,0\H,6,d11,1,120.,2,180.,0\O,7,d12,1,179.9,3,
 180.,0\C,13,d13,1,179.9,2,180.,0\H,14,d14,1,120.,2,90.,0\H,14,d15,1,12
 0.,2,-90.,0\H,7,d16,1,100.,2,90.,0\Br,17,d17,7,160.,1,0.,0\H,7,d18,1,1
 00.,2,-30.,0\Br,19,d19,7,160.,1,0.,0\H,7,d20,1,100.,2,-150.,0\Br,21,d2
 1,7,160.,1,0.,0\\d1=1.38048059\d2=1.38397398\d3=1.38839787\d4=1.394410
 69\d5=1.39847354\d6=1.3572452\d7=1.08346914\d8=1.08269851\d9=1.0830006
 3\d10=1.08263902\d11=1.08278558\d12=3.26692627\d13=1.20487656\d14=1.10
 060754\d15=1.10058654\d16=2.12463701\d17=1.42543248\d18=2.83051529\d19
 =1.4233788\d20=2.86576221\d21=1.4233961\\Version=ES64L-G16RevB.01\Stat
 e=1-A\HF=-8170.2512505\RMSD=8.997e-09\RMSF=3.340e-03\Dipole=-0.4378716
 ,-0.1033347,-0.2513562\Quadrupole=14.2079232,-14.1609996,-0.0469236,-0
 .112674,12.5609486,-0.0897662\PG=C01 [X(C7H10Br3F1O1)]\\@


 LET US PLACE AT THE END OF EVERY CHAPTER.....THE
 TWO LETTERS USED BY THE ROMAN JUDGES WHEN THEY DID
 NOT UNDERSTAND A PLEADING.
 N. L. -NON LIQUET- IT IS NOT CLEAR.
                                              -- VOLTAIRE
 Job cpu time:       0 days 13 hours 49 minutes 50.9 seconds.
 Elapsed time:       0 days  3 hours 27 minutes 38.7 seconds.
 File lengths (MBytes):  RWF=    333 Int=      0 D2E=      0 Chk=     17 Scr=      1
 Normal termination of Gaussian 16 at Tue Apr  9 13:40:00 2024.
