 Entering Gaussian System, Link 0=g16
 Input=model_H3.gjf
 Output=model_H3.log
 Initial command:
 /home/zjxu/prog/g16/l1.exe "/home/zjxu/zjhan/5_model/amide/vacuum/Gau-79301.inp" -scrdir="/home/zjxu/zjhan/5_model/amide/vacuum/"
 Entering Link 1 = /home/zjxu/prog/g16/l1.exe PID=     79302.
  
 Copyright (c) 1988-2017, Gaussian, Inc.  All Rights Reserved.
  
 This is part of the Gaussian(R) 16 program.  It is based on
 the Gaussian(R) 09 system (copyright 2009, Gaussian, Inc.),
 the Gaussian(R) 03 system (copyright 2003, Gaussian, Inc.),
 the Gaussian(R) 98 system (copyright 1998, Gaussian, Inc.),
 the Gaussian(R) 94 system (copyright 1995, Gaussian, Inc.),
 the Gaussian 92(TM) system (copyright 1992, Gaussian, Inc.),
 the Gaussian 90(TM) system (copyright 1990, Gaussian, Inc.),
 the Gaussian 88(TM) system (copyright 1988, Gaussian, Inc.),
 the Gaussian 86(TM) system (copyright 1986, Carnegie Mellon
 University), and the Gaussian 82(TM) system (copyright 1983,
 Carnegie Mellon University). Gaussian is a federally registered
 trademark of Gaussian, Inc.
  
 This software contains proprietary and confidential information,
 including trade secrets, belonging to Gaussian, Inc.
  
 This software is provided under written license and may be
 used, copied, transmitted, or stored only in accord with that
 written license.
  
 The following legend is applicable only to US Government
 contracts under FAR:
  
                    RESTRICTED RIGHTS LEGEND
  
 Use, reproduction and disclosure by the US Government is
 subject to restrictions as set forth in subparagraphs (a)
 and (c) of the Commercial Computer Software - Restricted
 Rights clause in FAR 52.227-19.
  
 Gaussian, Inc.
 340 Quinnipiac St., Bldg. 40, Wallingford CT 06492
  
  
 ---------------------------------------------------------------
 Warning -- This program may not be used in any manner that
 competes with the business of Gaussian, Inc. or will provide
 assistance to any competitor of Gaussian, Inc.  The licensee
 of this program is prohibited from giving any competitor of
 Gaussian, Inc. access to this program.  By using this program,
 the user acknowledges that Gaussian, Inc. is engaged in the
 business of creating and licensing software in the field of
 computational chemistry and represents and warrants to the
 licensee that it is not a competitor of Gaussian, Inc. and that
 it will not use this program in any manner prohibited above.
 ---------------------------------------------------------------
  

 Cite this work as:
 Gaussian 16, Revision B.01,
 M. J. Frisch, G. W. Trucks, H. B. Schlegel, G. E. Scuseria, 
 M. A. Robb, J. R. Cheeseman, G. Scalmani, V. Barone, 
 G. A. Petersson, H. Nakatsuji, X. Li, M. Caricato, A. V. Marenich, 
 J. Bloino, B. G. Janesko, R. Gomperts, B. Mennucci, H. P. Hratchian, 
 J. V. Ortiz, A. F. Izmaylov, J. L. Sonnenberg, D. Williams-Young, 
 F. Ding, F. Lipparini, F. Egidi, J. Goings, B. Peng, A. Petrone, 
 T. Henderson, D. Ranasinghe, V. G. Zakrzewski, J. Gao, N. Rega, 
 G. Zheng, W. Liang, M. Hada, M. Ehara, K. Toyota, R. Fukuda, 
 J. Hasegawa, M. Ishida, T. Nakajima, Y. Honda, O. Kitao, H. Nakai, 
 T. Vreven, K. Throssell, J. A. Montgomery, Jr., J. E. Peralta, 
 F. Ogliaro, M. J. Bearpark, J. J. Heyd, E. N. Brothers, K. N. Kudin, 
 V. N. Staroverov, T. A. Keith, R. Kobayashi, J. Normand, 
 K. Raghavachari, A. P. Rendell, J. C. Burant, S. S. Iyengar, 
 J. Tomasi, M. Cossi, J. M. Millam, M. Klene, C. Adamo, R. Cammi, 
 J. W. Ochterski, R. L. Martin, K. Morokuma, O. Farkas, 
 J. B. Foresman, and D. J. Fox, Gaussian, Inc., Wallingford CT, 2016.
 
 ******************************************
 Gaussian 16:  ES64L-G16RevB.01 20-Dec-2017
                26-Mar-2024 
 ******************************************
 %mem=4GB
 %nprocshared=4
 Will use up to    4 processors via shared memory.
 %chk=model_H3.chk
 ----------------------------------
 # opt=z-matrix 6-311++g(d,p) m062x
 ----------------------------------
 1/10=7,18=40,26=3,38=1/1,3;
 2/12=2,17=6,18=5,29=3,40=1/2;
 3/5=4,6=6,7=1111,11=2,25=1,30=1,71=1,74=-55/1,2,3;
 4//1;
 5/5=2,38=5/2;
 6/7=2,8=2,9=2,10=2,28=1/1;
 7/29=1/1,2,3,16;
 1/10=7,18=40,26=3/3(2);
 2/29=3/2;
 99//99;
 2/29=3/2;
 3/5=4,6=6,7=1111,11=2,25=1,30=1,71=1,74=-55/1,2,3;
 4/5=5,16=3,69=1/1;
 5/5=2,38=5/2;
 7//1,2,3,16;
 1/18=40,26=3/3(-5);
 2/29=3/2;
 6/7=2,8=2,9=2,10=2,19=2,28=1/1;
 99/9=1/99;
 ----
 test
 ----
 Symbolic Z-matrix:
 Charge =  0 Multiplicity = 1
 C
 C                    1    B1
 C                    2    B2       1     120. 
 C                    3    B3       2     120.     1     0.       0
 C                    4    B4       3     120.     2     0.       0
 C                    1    B5       2     119.97771  3     1.71723  0
 F                    1    B6       2     120.     3    -180.     0
 H                    2    B7       1     120.     6    -178.28277  0
 H                    3    B8       2     120.     1     180.     0
 H                    4    B9       3     120.     2     180.     0
 H                    5    B10      4     120.     3     180.     0
 H                    6    B11      1     119.91553  2    -177.77152  0
 O                    1    B12      2     120.     3    -180.     0
 C                    13   B13      1     179.9    2     180.     0
 H                    14   B14      13    119.99997  1    -90.0449  0
 H                    14   B15      13    119.99997  1     90.0449  0
 H                    7    B16      1     100.     2     90.      0
 N                    17   B17      7     179.9    1     90.      0
 C                    18   B18      17    119.5    7     0.       0
 O                    19   B19      18    123.2    17   -180.     0
 C                    18   B20      17    121.9    19   -180.     0
 H                    21   B21      18    110.7    17   -180.     0
 H                    21   B22      18    110.7    17   -60.      0
 H                    21   B23      18    110.7    17    60.      0
 H                    19   B24      18    113.46722  17    0.       0
 H                    7    B25      1     100.     2    -30.      0
 N                    26   B26      7     179.9    1    -30.      0
 C                    27   B27      26    119.5    7     120.     0
 O                    28   B28      27    123.2    26   -180.     0
 C                    27   B29      26    121.9    28   -180.     0
 H                    30   B30      27    110.7    26    180.     0
 H                    30   B31      27    110.7    26   -60.      0
 H                    30   B32      27    110.7    26    60.      0
 H                    28   B33      27    113.46722  26    0.       0
 H                    7    B34      1     100.     2    -150.     0
 N                    35   B35      7     179.9    1    -150.     0
 C                    36   B36      35    119.5    7     60.      0
 O                    37   B37      36    123.2    35   -180.     0
 C                    36   B38      35    121.9    37   -180.     0
 H                    39   B39      36    110.7    35    180.     0
 H                    39   B40      36    110.7    35   -60.      0
 H                    39   B41      36    110.7    35    60.      0
 H                    37   B42      36    113.46722  35    0.       0
       Variables:
  B1                    1.3                      
  B2                    1.3                      
  B3                    1.3                      
  B4                    1.3                      
  B5                    1.3                      
  B6                    1.4                      
  B7                    1.                       
  B8                    1.                       
  B9                    1.                       
  B10                   1.                       
  B11                   1.00101                  
  B12                   4.2                      
  B13                   1.2                      
  B14                   1.                       
  B15                   1.                       
  B16                   2.12                     
  B17                   1.                       
  B18                   1.33                     
  B19                   1.23                     
  B20                   1.45                     
  B21                   1.                       
  B22                   1.                       
  B23                   1.                       
  B24                   1.                       
  B25                   2.12                     
  B26                   1.                       
  B27                   1.33                     
  B28                   1.23                     
  B29                   1.45                     
  B30                   1.                       
  B31                   1.                       
  B32                   1.                       
  B33                   1.                       
  B34                   2.12                     
  B35                   1.                       
  B36                   1.33                     
  B37                   1.23                     
  B38                   1.45                     
  B39                   1.                       
  B40                   1.                       
  B41                   1.                       
  B42                   1.                       
 

 GradGradGradGradGradGradGradGradGradGradGradGradGradGradGradGradGradGrad
 Berny optimization.
 Initialization pass.
                       ----------------------------
                       !    Initial Parameters    !
                       ! (Angstroms and Degrees)  !
 ----------------------                            ----------------------
 !      Name          Value   Derivative information (Atomic Units)     !
 ------------------------------------------------------------------------
 !       B1          1.3      estimate D2E/DX2                          !
 !       B2          1.3      estimate D2E/DX2                          !
 !       B3          1.3      estimate D2E/DX2                          !
 !       B4          1.3      estimate D2E/DX2                          !
 !       B5          1.3      estimate D2E/DX2                          !
 !       B6          1.4      estimate D2E/DX2                          !
 !       B7          1.0      estimate D2E/DX2                          !
 !       B8          1.0      estimate D2E/DX2                          !
 !       B9          1.0      estimate D2E/DX2                          !
 !       B10         1.0      estimate D2E/DX2                          !
 !       B11         1.001    estimate D2E/DX2                          !
 !       B12         4.2      estimate D2E/DX2                          !
 !       B13         1.2      estimate D2E/DX2                          !
 !       B14         1.0      estimate D2E/DX2                          !
 !       B15         1.0      estimate D2E/DX2                          !
 !       B16         2.12     estimate D2E/DX2                          !
 !       B17         1.0      estimate D2E/DX2                          !
 !       B18         1.33     estimate D2E/DX2                          !
 !       B19         1.23     estimate D2E/DX2                          !
 !       B20         1.45     estimate D2E/DX2                          !
 !       B21         1.0      estimate D2E/DX2                          !
 !       B22         1.0      estimate D2E/DX2                          !
 !       B23         1.0      estimate D2E/DX2                          !
 !       B24         1.0      estimate D2E/DX2                          !
 !       B25         2.12     estimate D2E/DX2                          !
 !       B26         1.0      estimate D2E/DX2                          !
 !       B27         1.33     estimate D2E/DX2                          !
 !       B28         1.23     estimate D2E/DX2                          !
 !       B29         1.45     estimate D2E/DX2                          !
 !       B30         1.0      estimate D2E/DX2                          !
 !       B31         1.0      estimate D2E/DX2                          !
 !       B32         1.0      estimate D2E/DX2                          !
 !       B33         1.0      estimate D2E/DX2                          !
 !       B34         2.12     estimate D2E/DX2                          !
 !       B35         1.0      estimate D2E/DX2                          !
 !       B36         1.33     estimate D2E/DX2                          !
 !       B37         1.23     estimate D2E/DX2                          !
 !       B38         1.45     estimate D2E/DX2                          !
 !       B39         1.0      estimate D2E/DX2                          !
 !       B40         1.0      estimate D2E/DX2                          !
 !       B41         1.0      estimate D2E/DX2                          !
 !       B42         1.0      estimate D2E/DX2                          !
 ------------------------------------------------------------------------
 Trust Radius=3.00D-01 FncErr=1.00D-07 GrdErr=1.00D-06 EigMax=2.50D+02 EigMin=1.00D-04
 Number of steps in this run=     52 maximum allowed number of steps=    100.
 GradGradGradGradGradGradGradGradGradGradGradGradGradGradGradGradGradGrad

 ---------------------------------------------------------------------------------------------------
                            Z-MATRIX (ANGSTROMS AND DEGREES)
   CD    Cent   Atom    N1       Length/X        N2       Alpha/Y        N3        Beta/Z          J
 ---------------------------------------------------------------------------------------------------
      1      1  C 
      2      2  C        1   1.300000(     1)
      3      3  C        2   1.300000(     2)      1  120.000(    43)
      4      4  C        3   1.300000(     3)      2  120.000(    44)      1    0.000(    84)      0
      5      5  C        4   1.300000(     4)      3  120.000(    45)      2    0.000(    85)      0
      6      6  C        1   1.300000(     5)      2  119.978(    46)      3    1.717(    86)      0
      7      7  F        1   1.400000(     6)      2  120.000(    47)      3 -180.000(    87)      0
      8      8  H        2   1.000000(     7)      1  120.000(    48)      6 -178.283(    88)      0
      9      9  H        3   1.000000(     8)      2  120.000(    49)      1  180.000(    89)      0
     10     10  H        4   1.000000(     9)      3  120.000(    50)      2  180.000(    90)      0
     11     11  H        5   1.000000(    10)      4  120.000(    51)      3  180.000(    91)      0
     12     12  H        6   1.001007(    11)      1  119.916(    52)      2 -177.772(    92)      0
     13     13  O        1   4.200000(    12)      2  120.000(    53)      3 -180.000(    93)      0
     14     14  C       13   1.200000(    13)      1  179.900(    54)      2  180.000(    94)      0
     15     15  H       14   1.000000(    14)     13  120.000(    55)      1  -90.045(    95)      0
     16     16  H       14   1.000000(    15)     13  120.000(    56)      1   90.045(    96)      0
     17     17  H        7   2.120000(    16)      1  100.000(    57)      2   90.000(    97)      0
     18     18  N       17   1.000000(    17)      7  179.900(    58)      1   90.000(    98)      0
     19     19  C       18   1.330000(    18)     17  119.500(    59)      7    0.000(    99)      0
     20     20  O       19   1.230000(    19)     18  123.200(    60)     17 -180.000(   100)      0
     21     21  C       18   1.450000(    20)     17  121.900(    61)     19 -180.000(   101)      0
     22     22  H       21   1.000000(    21)     18  110.700(    62)     17 -180.000(   102)      0
     23     23  H       21   1.000000(    22)     18  110.700(    63)     17  -60.000(   103)      0
     24     24  H       21   1.000000(    23)     18  110.700(    64)     17   60.000(   104)      0
     25     25  H       19   1.000000(    24)     18  113.467(    65)     17    0.000(   105)      0
     26     26  H        7   2.120000(    25)      1  100.000(    66)      2  -30.000(   106)      0
     27     27  N       26   1.000000(    26)      7  179.900(    67)      1  -30.000(   107)      0
     28     28  C       27   1.330000(    27)     26  119.500(    68)      7  120.000(   108)      0
     29     29  O       28   1.230000(    28)     27  123.200(    69)     26 -180.000(   109)      0
     30     30  C       27   1.450000(    29)     26  121.900(    70)     28 -180.000(   110)      0
     31     31  H       30   1.000000(    30)     27  110.700(    71)     26  180.000(   111)      0
     32     32  H       30   1.000000(    31)     27  110.700(    72)     26  -60.000(   112)      0
     33     33  H       30   1.000000(    32)     27  110.700(    73)     26   60.000(   113)      0
     34     34  H       28   1.000000(    33)     27  113.467(    74)     26    0.000(   114)      0
     35     35  H        7   2.120000(    34)      1  100.000(    75)      2 -150.000(   115)      0
     36     36  N       35   1.000000(    35)      7  179.900(    76)      1 -150.000(   116)      0
     37     37  C       36   1.330000(    36)     35  119.500(    77)      7   60.000(   117)      0
     38     38  O       37   1.230000(    37)     36  123.200(    78)     35 -180.000(   118)      0
     39     39  C       36   1.450000(    38)     35  121.900(    79)     37 -180.000(   119)      0
     40     40  H       39   1.000000(    39)     36  110.700(    80)     35  180.000(   120)      0
     41     41  H       39   1.000000(    40)     36  110.700(    81)     35  -60.000(   121)      0
     42     42  H       39   1.000000(    41)     36  110.700(    82)     35   60.000(   122)      0
     43     43  H       37   1.000000(    42)     36  113.467(    83)     35    0.000(   123)      0
 ---------------------------------------------------------------------------------------------------
                         Z-Matrix orientation:                         
 ---------------------------------------------------------------------
 Center     Atomic      Atomic             Coordinates (Angstroms)
 Number     Number       Type             X           Y           Z
 ---------------------------------------------------------------------
      1          6           0        0.000000    0.000000    0.000000
      2          6           0        0.000000    0.000000    1.300000
      3          6           0        1.125833    0.000000    1.950000
      4          6           0        2.251666    0.000000    1.300000
      5          6           0        2.251666    0.000000    0.000000
      6          6           0        1.125580   -0.033745   -0.649562
      7          9           0       -1.212436    0.000000   -0.700000
      8          1           0       -0.866025    0.000000    1.800000
      9          1           0        1.125833    0.000000    2.950000
     10          1           0        3.117691    0.000000    1.800000
     11          1           0        3.117691    0.000000   -0.500000
     12          1           0        1.125833   -0.000000   -1.650000
     13          8           0       -3.637307    0.000000   -2.100000
     14          6           0       -4.675488    0.000000   -2.701813
     15          1           0       -5.108404    0.866025   -2.951981
     16          1           0       -5.108404   -0.866025   -2.951981
     17          1           0       -1.531249    2.087792   -0.884067
     18          7           0       -1.680760    3.072599   -0.972403
     19          6           0       -1.199589    3.715582   -2.032566
     20          8           0       -1.343395    4.924232   -2.209721
     21          6           0       -2.411147    3.829308    0.025809
     22          1           0       -2.460643    4.795025   -0.229027
     23          1           0       -3.344400    3.482475    0.119330
     24          1           0       -1.962551    3.763826    0.917141
     25          1           0       -0.710188    3.121088   -2.670583
     26          1           0       -2.435290   -1.043896    0.681777
     27          7           0       -3.010713   -1.537186    1.334121
     28          6           0       -3.677547   -0.858264    2.263259
     29          8           0       -4.403726   -1.395039    3.098385
     30          6           0       -3.143252   -2.980718    1.300227
     31          1           0       -3.756373   -3.296485    2.024364
     32          1           0       -3.515872   -3.280948    0.422152
     33          1           0       -2.254441   -3.420416    1.429379
     34          1           0       -3.530959    0.129828    2.216495
     35          1           0       -0.627208   -1.043896   -2.449911
     36          7           0       -0.352343   -1.535412   -3.276265
     37          6           0        0.116788   -0.854333   -4.317873
     38          8           0        0.473992   -1.388863   -5.366483
     39          6           0       -0.449188   -2.978643   -3.377292
     40          1           0       -0.131045   -3.292503   -4.271874
     41          1           0        0.108505   -3.420390   -2.674555
     42          1           0       -1.395847   -3.278510   -3.259330
     43          1           0        0.150625    0.133376   -4.165278
 ---------------------------------------------------------------------
                    Distance matrix (angstroms):
                    1          2          3          4          5
     1  C    0.000000
     2  C    1.300000   0.000000
     3  C    2.251666   1.300000   0.000000
     4  C    2.600000   2.251666   1.300000   0.000000
     5  C    2.251666   2.600000   2.251666   1.300000   0.000000
     6  C    1.300000   2.251413   2.599781   2.251666   1.300438
     7  F    1.400000   2.338803   3.534119   4.000000   3.534119
     8  H    1.997498   1.000000   1.997498   3.157531   3.600000
     9  H    3.157531   1.997498   1.000000   1.997498   3.157531
    10  H    3.600000   3.157531   1.997498   1.000000   1.997498
    11  H    3.157531   3.600000   3.157531   1.997498   1.000000
    12  H    1.997498   3.157531   3.600000   3.157531   1.997498
    13  O    4.200000   4.978956   6.252200   6.800000   6.252200
    14  C    5.399999   6.154242   7.436040   7.999998   7.435406
    15  H    5.963219   6.702621   7.977790   8.544002   7.977144
    16  H    5.963219   6.702621   7.977790   8.544002   7.977144
    17  H    2.735905   3.387292   4.410317   4.841433   4.410317
    18  N    3.634747   4.174881   5.085102   5.483489   5.084329
    19  C    4.401805   5.133279   5.922328   6.068171   5.463335
    20  O    5.561982   6.194426   6.902784   7.034960   6.485013
    21  C    4.525251   4.701148   5.556648   6.166765   6.033746
    22  H    5.394393   5.602227   6.372066   6.894639   6.726854
    23  H    4.829791   4.970576   5.954995   6.696086   6.592255
    24  H    4.342712   4.261992   4.977078   5.663267   5.724261
    25  H    4.168641   5.100106   5.870430   5.854853   5.064167
    26  H    2.735905   2.720764   3.921697   4.841433   4.849958
    27  N    3.634173   3.380606   4.455700   5.482403   5.642292
    28  C    4.402648   3.897286   4.889499   6.067953   6.404258
    29  O    5.562277   4.957129   5.817297   7.033816   7.472641
    30  C    4.522754   4.331826   5.247092   6.163588   6.299239
    31  H    5.392143   5.049936   5.891373   6.891158   7.145726
    32  H    4.827441   4.888414   5.885946   6.693260   6.648859
    33  H    4.338764   4.098596   4.836997   5.658709   5.835012
    34  H    4.171017   3.650273   4.666218   5.856243   6.194228
    35  H    2.735905   3.942708   4.849958   4.841433   3.921697
    36  N    3.635320   4.839818   5.644143   5.484575   4.457832
    37  C    4.403130   5.683663   6.405802   6.070263   4.891996
    38  O    5.563520   6.826098   7.475611   7.037831   5.821358
    39  C    4.525504   5.563375   6.303415   6.167980   5.251002
    40  H    5.395058   6.473293   7.150667   6.896642   5.896337
    41  H    4.343281   5.244800   5.841279   5.664742   4.842051
    42  H    4.829104   5.786580   6.651663   6.696303   5.888651
    43  H    4.170134   5.468980   6.193985   5.856742   4.667088
                    6          7          8          9         10
     6  C    0.000000
     7  F    2.338803   0.000000
     8  H    3.157212   2.523886   0.000000
     9  H    3.599720   4.334743   2.300000   0.000000
    10  H    3.157531   5.000000   3.983717   2.300000   0.000000
    11  H    1.998003   4.334743   4.600000   3.983717   2.300000
    12  H    1.001007   2.523886   3.983717   4.600000   3.983717
    13  O    4.978956   2.800000   4.784349   6.941902   7.800000
    14  C    6.153476   3.999999   5.897315   8.099279   8.999998
    15  H    6.706212   4.582574   6.428771   8.628389   9.539390
    16  H    6.697491   4.582574   6.428771   8.628389   9.539390
    17  H    3.408028   2.120000   3.464912   5.110678   5.759839
    18  N    4.198707   3.119999   4.217923   5.718660   6.336577
    19  C    4.623479   3.947334   5.348399   6.636196   6.865349
    20  O    5.754257   5.152132   6.368187   7.547706   7.760620
    21  C    5.280885   4.077660   4.494303   5.977016   6.955531
    22  H    6.029500   4.977158   5.445367   6.779475   7.630663
    23  H    5.738965   4.164638   4.592888   6.334296   7.530665
    24  H    5.139325   4.164638   4.018482   5.276080   6.383940
    25  H    4.172235   3.725136   5.454502   6.686039   6.661829
    26  H    3.933531   2.120000   2.191514   4.349270   5.759839
    27  N    4.827448   3.119999   2.679491   4.699470   6.335403
    28  C    5.677533   3.948961   2.975883   4.927544   6.864873
    29  O    6.817144   5.153465   4.018366   5.704750   7.759102
    30  C    5.541593   4.075984   3.784206   5.461824   6.952256
    31  H    6.452040   4.976002   4.389905   5.963183   7.626921
    32  H    5.765065   4.162891   4.436752   6.220937   7.527765
    33  H    5.216903   4.161643   3.710028   5.043589   6.379374
    34  H    5.470320   3.728049   2.700407   4.715994   6.662948
    35  H    2.708123   2.120000   4.382750   5.772514   5.759839
    36  N    3.367318   3.119999   5.328211   6.580948   6.337752
    37  C    3.891983   3.947876   6.254933   7.387154   6.867582
    38  O    4.950784   5.152577   7.421797   8.456816   7.763798
    39  C    4.311940   4.077101   5.987522   7.168516   6.956960
    40  H    5.031874   4.976773   6.946109   8.035906   7.632989
    41  H    4.074850   4.164471   5.715804   6.661054   6.385602
    42  H    4.867955   4.163224   6.051955   7.460783   7.531101
    43  H    3.652223   3.726108   6.052761   7.183036   6.663769
                   11         12         13         14         15
    11  H    0.000000
    12  H    2.300000   0.000000
    13  O    6.941902   4.784349   0.000000
    14  C    8.098249   5.895900   1.200000   0.000000
    15  H    8.627332   6.427353   1.907878   1.000000   0.000000
    16  H    8.627332   6.427353   1.907878   1.000000   1.732051
    17  H    5.110678   3.464912   3.205129   4.189191   4.308714
    18  N    5.717444   4.216274   3.813189   4.626027   4.531715
    19  C    5.898577   4.399942   4.444386   5.131795   4.923833
    20  O    6.860940   5.537006   5.433427   5.965992   5.585274
    21  C    6.745971   5.475597   4.548201   5.218310   4.992341
    22  H    7.360944   6.154205   5.279900   5.832022   5.464628
    23  H    7.366806   5.936425   4.139910   4.675284   4.403461
    24  H    6.479471   5.504064   5.106304   5.884152   5.767473
    25  H    5.394931   3.762148   4.316802   5.046363   4.950636
    26  H    5.772514   4.382750   3.205129   4.190094   4.898728
    27  N    6.579079   5.327188   3.814282   4.628518   5.342884
    28  C    7.385627   6.254812   4.447051   5.136579   5.676201
    29  O    8.453770   7.420871   5.436611   5.971791   6.497377
    30  C    7.164141   5.984447   4.548661   5.220034   6.061397
    31  H    8.030691   6.942889   5.281228   5.835095   6.627103
    32  H    7.457824   6.050112   4.140122   4.676375   5.578379
    33  H    6.654439   5.710348   5.105691   5.884511   6.761287
    34  H    7.183367   6.054119   4.319756   5.051391   5.453757
    35  H    4.349270   2.191514   3.205129   4.188287   4.897039
    36  N    4.701731   2.680902   3.812096   4.623535   5.337807
    37  C    4.930666   2.977517   4.443205   5.129079   5.668150
    38  O    5.709706   4.020707   5.431541   5.962094   6.486717
    39  C    5.465688   3.786363   4.546195   5.214423   6.055631
    40  H    5.968408   4.392555   5.277451   5.827318   6.618881
    41  H    5.048065   3.712646   5.104928   5.881020   6.757696
    42  H    6.223710   4.438180   4.137247   4.670706   5.572676
    43  H    4.717578   2.701008   4.316433   5.044888   5.446674
                   16         17         18         19         20
    16  H    0.000000
    17  H    5.079109   0.000000
    18  N    5.583926   1.000000   0.000000
    19  C    6.092232   2.019591   1.330000   0.000000
    20  O    6.946461   3.136564   2.252403   1.230000   0.000000
    21  C    6.179691   2.152898   1.450000   2.391174   2.708605
    22  H    6.817082   2.936317   2.031644   2.451165   2.277737
    23  H    5.608397   2.497892   2.031644   3.047165   3.392221
    24  H    6.804559   2.497892   2.031644   3.047165   3.392221
    25  H    5.943111   2.221144   1.956573   1.000000   1.965877
    26  H    4.514574   3.616163   4.500128   5.616694   6.720978
    27  N    4.818862   4.499961   5.323434   6.496640   7.555706
    28  C    5.407970   4.815756   5.468852   6.746440   7.674182
    29  O    6.114193   6.020064   6.629151   7.919066   8.801977
    30  C    5.139555   5.749739   6.629206   7.728245   8.834447
    31  H    5.700801   6.511574   7.338529   8.494994   9.556680
    32  H    4.444410   5.870971   6.758696   7.768026   8.886584
    33  H    5.819479   6.017923   6.946719   8.001265   9.149110
    34  H    5.494834   4.176835   4.717224   6.028884   6.882088
    35  H    4.512740   3.616163   4.498726   4.811905   6.015744
    36  N    4.813871   4.498894   5.320361   5.462376   6.621685
    37  C    5.400781   4.812811   5.462980   5.276324   6.322045
    38  O    6.104616   6.016659   6.622352   6.322281   7.288568
    39  C    5.133453   5.749417   6.627050   6.869063   8.038549
    40  H    5.692453   6.510406   7.335029   7.434348   8.557862
    41  H    5.815314   6.019528   6.946776   7.283224   8.482736
    42  H    4.438200   5.870043   6.756315   7.103575   8.269789
    43  H    5.488924   4.173103   4.710356   4.382206   5.385963
                   21         22         23         24         25
    21  C    0.000000
    22  H    1.000000   0.000000
    23  H    1.000000   1.620237   0.000000
    24  H    1.000000   1.620237   1.620237   0.000000
    25  H    3.265787   3.439091   3.853996   3.853996   0.000000
    26  H    4.917215   5.909586   4.650900   4.836639   5.617952
    27  N    5.556116   6.545450   5.175332   5.419710   6.559695
    28  C    5.346334   6.296985   4.852776   5.110476   6.998804
    29  O    6.380040   7.291374   5.812666   6.109915   8.204793
    30  C    6.966820   7.954040   6.573268   6.857820   7.675883
    31  H    7.522020   8.498778   7.053594   7.368293   8.515105
    32  H    7.206472   8.170611   6.772370   7.230952   7.643490
    33  H    7.386005   8.383693   7.110144   7.208393   7.873099
    34  H    4.442886   5.374962   3.958933   4.165834   6.386542
    35  H    5.749761   6.510515   5.871301   6.019500   4.171652
    36  N    6.627412   7.335191   6.757342   6.946896   4.709342
    37  C    6.869827   7.434855   7.104682   7.283984   4.381944
    38  O    8.039288   8.558389   8.270684   8.483566   5.386077
    39  C    7.859935   8.624815   7.896497   8.135928   6.146079
    40  H    8.624914   9.337010   8.689572   8.948300   6.635789
    41  H    8.136260   8.948417   8.208404   8.294728   6.592512
    42  H    7.895824   8.688987   7.805326   8.207226   6.463096
    43  H    6.147178   6.636548   6.464483   6.593684   3.449861
                   26         27         28         29         30
    26  H    0.000000
    27  N    1.000000   0.000000
    28  C    2.019591   1.330000   0.000000
    29  O    3.136564   2.252403   1.230000   0.000000
    30  C    2.152898   1.450000   2.391174   2.708605   0.000000
    31  H    2.936317   2.031644   2.451165   2.277737   1.000000
    32  H    2.497892   2.031644   3.047165   3.392221   1.000000
    33  H    2.497892   2.031644   3.047165   3.392221   1.000000
    34  H    2.221144   1.956573   1.000000   1.965877   3.265787
    35  H    3.616163   4.499259   5.617206   6.720787   4.913786
    36  N    4.499595   5.321898   6.496294   7.554441   5.551790
    37  C    5.616542   6.495583   7.596598   8.702201   6.834649
    38  O    6.720445   7.554024   8.702286   9.769656   7.750064
    39  C    4.915678   5.553073   6.836236   7.751166   5.397886
    40  H    5.907998   6.542233   7.823756   8.727937   6.341838
    41  H    4.835657   5.417145   6.729092   7.601915   5.154234
    42  H    4.648254   5.171053   6.446917   7.281163   4.892000
    43  H    5.618441   6.559591   7.547473   8.708558   7.100631
                   31         32         33         34         35
    31  H    0.000000
    32  H    1.620237   0.000000
    33  H    1.620237   1.620237   0.000000
    34  H    3.439091   3.853996   3.853996   0.000000
    35  H    5.906350   4.647313   4.831628   5.620031   0.000000
    36  N    6.541060   5.170406   5.414269   6.561025   1.000000
    37  C    7.822369   6.446124   6.725951   7.548020   2.019591
    38  O    8.726949   7.280611   7.599691   8.709054   3.136564
    39  C    6.341639   4.892005   5.153464   7.102842   2.152898
    40  H    7.265372   5.787146   6.085183   8.085215   2.936317
    41  H    6.085431   4.769187   4.735587   7.054936   2.497892
    42  H    5.787039   4.248272   4.768785   6.794125   2.497892
    43  H    8.083332   6.793035   7.050814   7.367572   2.221144
                   36         37         38         39         40
    36  N    0.000000
    37  C    1.330000   0.000000
    38  O    2.252403   1.230000   0.000000
    39  C    1.450000   2.391174   2.708605   0.000000
    40  H    2.031644   2.451165   2.277737   1.000000   0.000000
    41  H    2.031644   3.047165   3.392221   1.000000   1.620237
    42  H    2.031644   3.047165   3.392221   1.000000   1.620237
    43  H    1.956573   1.000000   1.965877   3.265787   3.439091
                   41         42         43
    41  H    0.000000
    42  H    1.620237   0.000000
    43  H    3.853996   3.853996   0.000000
 Stoichiometry    C13H22FN3O4
 Framework group  C1[X(C13H22FN3O4)]
 Deg. of freedom   123
 Full point group                 C1      NOp   1
 Largest Abelian subgroup         C1      NOp   1
 Largest concise Abelian subgroup C1      NOp   1
                         Standard orientation:                         
 ---------------------------------------------------------------------
 Center     Atomic      Atomic             Coordinates (Angstroms)
 Number     Number       Type             X           Y           Z
 ---------------------------------------------------------------------
      1          6           0       -0.095176   -0.155971    1.438323
      2          6           0       -1.215814    0.026034    2.071604
      3          6           0       -1.250836   -0.058876    3.368355
      4          6           0       -0.165219   -0.325791    4.031826
      5          6           0        0.955419   -0.507796    3.398545
      6          6           0        0.983263   -0.455779    2.099446
      7          9           0       -0.057461   -0.064529    0.041822
      8          1           0       -2.050904    0.231354    1.561242
      9          1           0       -2.112865    0.081128    3.855494
     10          1           0       -0.192159   -0.391107    5.029327
     11          1           0        1.790509   -0.713116    3.908907
     12          1           0        1.852470   -0.562890    1.614655
     13          8           0        0.017970    0.118355   -2.751181
     14          6           0        0.052350    0.196316   -3.948152
     15          1           0        0.237482    1.075687   -4.386824
     16          1           0       -0.105462   -0.617817   -4.506975
     17          1           0        0.365836    2.000844   -0.180563
     18          7           0        0.567215    2.974727   -0.285439
     19          6           0        1.832924    3.379789   -0.338391
     20          8           0        2.157849    4.559209   -0.466040
     21          6           0       -0.484233    3.968473   -0.382528
     22          1           0       -0.096441    4.884753   -0.482766
     23          1           0       -1.068967    3.788274   -1.173487
     24          1           0       -1.056245    3.959144    0.437664
     25          1           0        2.493551    2.632733   -0.264379
     26          1           0       -2.025849   -0.700666   -0.422049
     27          7           0       -2.954344   -1.001737   -0.639429
     28          6           0       -3.931997   -0.103648   -0.720236
     29          8           0       -5.097006   -0.398090   -0.982835
     30          6           0       -3.272784   -2.397178   -0.871461
     31          1           0       -4.245606   -2.508735   -1.074372
     32          1           0       -2.749161   -2.755438   -1.644422
     33          1           0       -3.056469   -2.947887   -0.065280
     34          1           0       -3.627649    0.833002   -0.546859
     35          1           0        1.517383   -1.421629   -0.373564
     36          7           0        2.260653   -2.060847   -0.570922
     37          6           0        3.512292   -1.614057   -0.622675
     38          8           0        4.477055   -2.339314   -0.859604
     39          6           0        2.016797   -3.470970   -0.804561
     40          1           0        2.874250   -3.952800   -0.985155
     41          1           0        1.583763   -3.891640   -0.007367
     42          1           0        1.414040   -3.599732   -1.592028
     43          1           0        3.592104   -0.632253   -0.450365
 ---------------------------------------------------------------------
 Rotational constants (GHZ):           0.2081136           0.1792946           0.1648973
 Standard basis: 6-311++G(d,p) (5D, 7F)
 There are   637 symmetry adapted cartesian basis functions of A   symmetry.
 There are   616 symmetry adapted basis functions of A   symmetry.
   616 basis functions,   954 primitive gaussians,   637 cartesian basis functions
    81 alpha electrons       81 beta electrons
       nuclear repulsion energy      1700.9009915983 Hartrees.
 NAtoms=   43 NActive=   43 NUniq=   43 SFac= 1.00D+00 NAtFMM=   60 NAOKFM=F Big=F
 Integral buffers will be    131072 words long.
 Raffenetti 2 integral format.
 Two-electron integral symmetry is turned on.
 One-electron integrals computed using PRISM.
 NBasis=   616 RedAO= T EigKep=  3.11D-06  NBF=   616
 NBsUse=   614 1.00D-06 EigRej=  7.33D-07 NBFU=   614
 ExpMin= 3.60D-02 ExpMax= 1.14D+04 ExpMxC= 1.72D+03 IAcc=3 IRadAn=         5 AccDes= 0.00D+00
 Harris functional with IExCor= 1009 and IRadAn=       5 diagonalized for initial guess.
 HarFok:  IExCor= 1009 AccDes= 0.00D+00 IRadAn=         5 IDoV= 1 UseB2=F ITyADJ=14
 ICtDFT=  3500011 ScaDFX=  1.000000  1.000000  1.000000  1.000000
 FoFCou: FMM=F IPFlag=           0 FMFlag=      100000 FMFlg1=           0
         NFxFlg=           0 DoJE=T BraDBF=F KetDBF=T FulRan=T
         wScrn=  0.000000 ICntrl=       500 IOpCl=  0 I1Cent=   200000004 NGrid=           0
         NMat0=    1 NMatS0=      1 NMatT0=    0 NMatD0=    1 NMtDS0=    0 NMtDT0=    0
 Petite list used in FoFCou.
 Requested convergence on RMS density matrix=1.00D-08 within 128 cycles.
 Requested convergence on MAX density matrix=1.00D-06.
 Requested convergence on             energy=1.00D-06.
 No special actions if energy rises.
 SCF Done:  E(RM062X) =  -1073.27863346     A.U. after   15 cycles
            NFock= 15  Conv=0.21D-08     -V/T= 1.9993

 **********************************************************************

            Population analysis using the SCF Density.

 **********************************************************************

 Orbital symmetries:
       Occupied  (A) (A) (A) (A) (A) (A) (A) (A) (A) (A) (A) (A)
                 (A) (A) (A) (A) (A) (A) (A) (A) (A) (A) (A) (A)
                 (A) (A) (A) (A) (A) (A) (A) (A) (A) (A) (A) (A)
                 (A) (A) (A) (A) (A) (A) (A) (A) (A) (A) (A) (A)
                 (A) (A) (A) (A) (A) (A) (A) (A) (A) (A) (A) (A)
                 (A) (A) (A) (A) (A) (A) (A) (A) (A) (A) (A) (A)
                 (A) (A) (A) (A) (A) (A) (A) (A) (A)
       Virtual   (A) (A) (A) (A) (A) (A) (A) (A) (A) (A) (A) (A)
                 (A) (A) (A) (A) (A) (A) (A) (A) (A) (A) (A) (A)
                 (A) (A) (A) (A) (A) (A) (A) (A) (A) (A) (A) (A)
                 (A) (A) (A) (A) (A) (A) (A) (A) (A) (A) (A) (A)
                 (A) (A) (A) (A) (A) (A) (A) (A) (A) (A) (A) (A)
                 (A) (A) (A) (A) (A) (A) (A) (A) (A) (A) (A) (A)
                 (A) (A) (A) (A) (A) (A) (A) (A) (A) (A) (A) (A)
                 (A) (A) (A) (A) (A) (A) (A) (A) (A) (A) (A) (A)
                 (A) (A) (A) (A) (A) (A) (A) (A) (A) (A) (A) (A)
                 (A) (A) (A) (A) (A) (A) (A) (A) (A) (A) (A) (A)
                 (A) (A) (A) (A) (A) (A) (A) (A) (A) (A) (A) (A)
                 (A) (A) (A) (A) (A) (A) (A) (A) (A) (A) (A) (A)
                 (A) (A) (A) (A) (A) (A) (A) (A) (A) (A) (A) (A)
                 (A) (A) (A) (A) (A) (A) (A) (A) (A) (A) (A) (A)
                 (A) (A) (A) (A) (A) (A) (A) (A) (A) (A) (A) (A)
                 (A) (A) (A) (A) (A) (A) (A) (A) (A) (A) (A) (A)
                 (A) (A) (A) (A) (A) (A) (A) (A) (A) (A) (A) (A)
                 (A) (A) (A) (A) (A) (A) (A) (A) (A) (A) (A) (A)
                 (A) (A) (A) (A) (A) (A) (A) (A) (A) (A) (A) (A)
                 (A) (A) (A) (A) (A) (A) (A) (A) (A) (A) (A) (A)
                 (A) (A) (A) (A) (A) (A) (A) (A) (A) (A) (A) (A)
                 (A) (A) (A) (A) (A) (A) (A) (A) (A) (A) (A) (A)
                 (A) (A) (A) (A) (A) (A) (A) (A) (A) (A) (A) (A)
                 (A) (A) (A) (A) (A) (A) (A) (A) (A) (A) (A) (A)
                 (A) (A) (A) (A) (A) (A) (A) (A) (A) (A) (A) (A)
                 (A) (A) (A) (A) (A) (A) (A) (A) (A) (A) (A) (A)
                 (A) (A) (A) (A) (A) (A) (A) (A) (A) (A) (A) (A)
                 (A) (A) (A) (A) (A) (A) (A) (A) (A) (A) (A) (A)
                 (A) (A) (A) (A) (A) (A) (A) (A) (A) (A) (A) (A)
                 (A) (A) (A) (A) (A) (A) (A) (A) (A) (A) (A) (A)
                 (A) (A) (A) (A) (A) (A) (A) (A) (A) (A) (A) (A)
                 (A) (A) (A) (A) (A) (A) (A) (A) (A) (A) (A) (A)
                 (A) (A) (A) (A) (A) (A) (A) (A) (A) (A) (A) (A)
                 (A) (A) (A) (A) (A) (A) (A) (A) (A) (A) (A) (A)
                 (A) (A) (A) (A) (A) (A) (A) (A) (A) (A) (A) (A)
                 (A) (A) (A) (A) (A) (A) (A) (A) (A) (A) (A) (A)
                 (A) (A) (A) (A) (A) (A) (A) (A) (A) (A) (A) (A)
                 (A) (A) (A) (A) (A) (A) (A) (A) (A) (A) (A) (A)
                 (A) (A) (A) (A) (A) (A) (A) (A) (A) (A) (A) (A)
                 (A) (A) (A) (A) (A) (A) (A) (A) (A) (A) (A) (A)
                 (A) (A) (A) (A) (A) (A) (A) (A) (A) (A) (A) (A)
                 (A) (A) (A) (A) (A) (A) (A) (A) (A) (A) (A) (A)
                 (A) (A) (A) (A) (A) (A) (A) (A) (A) (A) (A) (A)
                 (A) (A) (A) (A) (A) (A) (A) (A) (A) (A) (A) (A)
                 (A) (A) (A) (A) (A)
 The electronic state is 1-A.
 Alpha  occ. eigenvalues --  -25.29950 -19.65901 -19.59004 -19.58845 -19.58322
 Alpha  occ. eigenvalues --  -14.78266 -14.78131 -14.77604 -10.64814 -10.63723
 Alpha  occ. eigenvalues --  -10.63503 -10.63349 -10.62806 -10.55750 -10.55740
 Alpha  occ. eigenvalues --  -10.55277 -10.55258 -10.54841 -10.54740 -10.54472
 Alpha  occ. eigenvalues --  -10.54321  -1.40590  -1.20995  -1.16126  -1.15968
 Alpha  occ. eigenvalues --   -1.15439  -1.06364  -1.04643  -1.04509  -1.03946
 Alpha  occ. eigenvalues --   -0.92572  -0.91745  -0.84510  -0.84398  -0.83902
 Alpha  occ. eigenvalues --   -0.77322  -0.77310  -0.75790  -0.70469  -0.70329
 Alpha  occ. eigenvalues --   -0.70071  -0.69729  -0.65893  -0.65741  -0.65214
 Alpha  occ. eigenvalues --   -0.62699  -0.62656  -0.62232  -0.60973  -0.57141
 Alpha  occ. eigenvalues --   -0.56105  -0.55691  -0.55229  -0.55059  -0.54896
 Alpha  occ. eigenvalues --   -0.54745  -0.54594  -0.54323  -0.54122  -0.51110
 Alpha  occ. eigenvalues --   -0.49853  -0.49714  -0.49381  -0.49241  -0.48236
 Alpha  occ. eigenvalues --   -0.47985  -0.47522  -0.47422  -0.46549  -0.46387
 Alpha  occ. eigenvalues --   -0.45871  -0.45227  -0.37019  -0.36978  -0.36161
 Alpha  occ. eigenvalues --   -0.34018  -0.33861  -0.33335  -0.32853  -0.32709
 Alpha  occ. eigenvalues --   -0.32196
 Alpha virt. eigenvalues --   -0.02805  -0.02291  -0.01409  -0.01111  -0.00792
 Alpha virt. eigenvalues --   -0.00268   0.00171   0.00396   0.01094   0.01150
 Alpha virt. eigenvalues --    0.01654   0.01704   0.02259   0.02411   0.03376
 Alpha virt. eigenvalues --    0.03568   0.03847   0.04294   0.04399   0.04878
 Alpha virt. eigenvalues --    0.05202   0.05390   0.05677   0.06077   0.06290
 Alpha virt. eigenvalues --    0.06509   0.06654   0.07021   0.07401   0.07505
 Alpha virt. eigenvalues --    0.07728   0.08175   0.08382   0.08958   0.09094
 Alpha virt. eigenvalues --    0.09582   0.10478   0.10875   0.11056   0.11385
 Alpha virt. eigenvalues --    0.11702   0.11802   0.11909   0.12213   0.12335
 Alpha virt. eigenvalues --    0.12589   0.12906   0.13226   0.13557   0.13743
 Alpha virt. eigenvalues --    0.14038   0.14600   0.14770   0.14882   0.14966
 Alpha virt. eigenvalues --    0.15163   0.15268   0.15446   0.15738   0.16121
 Alpha virt. eigenvalues --    0.16384   0.16544   0.17135   0.17436   0.17664
 Alpha virt. eigenvalues --    0.17846   0.18198   0.18321   0.18750   0.18869
 Alpha virt. eigenvalues --    0.19326   0.19485   0.20116   0.20530   0.20643
 Alpha virt. eigenvalues --    0.21074   0.21343   0.21636   0.21775   0.22499
 Alpha virt. eigenvalues --    0.22744   0.23293   0.23887   0.24280   0.24453
 Alpha virt. eigenvalues --    0.24756   0.25166   0.25371   0.25898   0.26324
 Alpha virt. eigenvalues --    0.26455   0.26980   0.27174   0.27931   0.27992
 Alpha virt. eigenvalues --    0.28476   0.28980   0.29059   0.29304   0.29749
 Alpha virt. eigenvalues --    0.29985   0.30009   0.30538   0.31108   0.31676
 Alpha virt. eigenvalues --    0.31845   0.32528   0.32697   0.33126   0.33374
 Alpha virt. eigenvalues --    0.34068   0.34378   0.34710   0.35167   0.35598
 Alpha virt. eigenvalues --    0.35717   0.36116   0.36420   0.36622   0.36750
 Alpha virt. eigenvalues --    0.36930   0.37496   0.37992   0.38477   0.38732
 Alpha virt. eigenvalues --    0.38951   0.39757   0.40059   0.40882   0.41631
 Alpha virt. eigenvalues --    0.42168   0.42368   0.43310   0.43760   0.43919
 Alpha virt. eigenvalues --    0.44184   0.44271   0.45503   0.46361   0.47163
 Alpha virt. eigenvalues --    0.47673   0.48344   0.49287   0.49610   0.49980
 Alpha virt. eigenvalues --    0.50355   0.51520   0.51941   0.53112   0.54479
 Alpha virt. eigenvalues --    0.55315   0.55911   0.57210   0.57656   0.58028
 Alpha virt. eigenvalues --    0.58874   0.59049   0.59496   0.59925   0.60442
 Alpha virt. eigenvalues --    0.61141   0.61499   0.61801   0.62251   0.62963
 Alpha virt. eigenvalues --    0.63465   0.63661   0.64096   0.64831   0.65160
 Alpha virt. eigenvalues --    0.65432   0.66075   0.66754   0.68366   0.68606
 Alpha virt. eigenvalues --    0.69007   0.70439   0.70957   0.71241   0.72156
 Alpha virt. eigenvalues --    0.72948   0.73406   0.73854   0.74156   0.74527
 Alpha virt. eigenvalues --    0.75014   0.75473   0.76069   0.77085   0.77659
 Alpha virt. eigenvalues --    0.78318   0.78423   0.79088   0.79415   0.80055
 Alpha virt. eigenvalues --    0.80738   0.81184   0.81796   0.82216   0.83404
 Alpha virt. eigenvalues --    0.83952   0.84382   0.86364   0.86741   0.86935
 Alpha virt. eigenvalues --    0.87215   0.88872   0.88955   0.91461   0.92238
 Alpha virt. eigenvalues --    0.93176   0.94437   0.94714   0.95652   0.97470
 Alpha virt. eigenvalues --    0.98152   0.98647   0.98934   1.00172   1.00238
 Alpha virt. eigenvalues --    1.00518   1.01281   1.01724   1.02743   1.03001
 Alpha virt. eigenvalues --    1.05132   1.06232   1.08012   1.08136   1.08959
 Alpha virt. eigenvalues --    1.09580   1.09823   1.10983   1.12108   1.13026
 Alpha virt. eigenvalues --    1.14336   1.14862   1.15752   1.16099   1.16965
 Alpha virt. eigenvalues --    1.18293   1.18732   1.19549   1.21456   1.21766
 Alpha virt. eigenvalues --    1.22157   1.22646   1.23025   1.23700   1.24763
 Alpha virt. eigenvalues --    1.25349   1.26583   1.27020   1.27821   1.28015
 Alpha virt. eigenvalues --    1.29076   1.29773   1.30513   1.32792   1.34356
 Alpha virt. eigenvalues --    1.34717   1.36427   1.37034   1.37470   1.38606
 Alpha virt. eigenvalues --    1.39847   1.40420   1.45988   1.49513   1.50967
 Alpha virt. eigenvalues --    1.53525   1.54046   1.55432   1.55693   1.56537
 Alpha virt. eigenvalues --    1.56694   1.57093   1.57767   1.57811   1.58344
 Alpha virt. eigenvalues --    1.60500   1.61727   1.62444   1.62887   1.63373
 Alpha virt. eigenvalues --    1.63507   1.63691   1.64555   1.65115   1.65342
 Alpha virt. eigenvalues --    1.66208   1.66402   1.67856   1.68274   1.68393
 Alpha virt. eigenvalues --    1.70023   1.71250   1.71581   1.71901   1.72700
 Alpha virt. eigenvalues --    1.73209   1.73829   1.74432   1.74814   1.75666
 Alpha virt. eigenvalues --    1.76058   1.76305   1.76918   1.77698   1.80236
 Alpha virt. eigenvalues --    1.81212   1.82224   1.82551   1.83172   1.83532
 Alpha virt. eigenvalues --    1.83800   1.84107   1.84307   1.84893   1.85157
 Alpha virt. eigenvalues --    1.86750   1.87626   1.89667   1.89902   1.91877
 Alpha virt. eigenvalues --    1.91900   1.92739   1.93264   1.95383   1.96884
 Alpha virt. eigenvalues --    1.99069   1.99491   2.00328   2.02156   2.02897
 Alpha virt. eigenvalues --    2.03483   2.04211   2.04715   2.05896   2.06677
 Alpha virt. eigenvalues --    2.08242   2.12667   2.13132   2.13472   2.13708
 Alpha virt. eigenvalues --    2.14919   2.15467   2.16143   2.16329   2.17549
 Alpha virt. eigenvalues --    2.18923   2.19914   2.20160   2.26344   2.26529
 Alpha virt. eigenvalues --    2.27167   2.30918   2.37550   2.39619   2.40478
 Alpha virt. eigenvalues --    2.41038   2.41273   2.41377   2.41569   2.42406
 Alpha virt. eigenvalues --    2.44497   2.47617   2.48925   2.52448   2.54668
 Alpha virt. eigenvalues --    2.55393   2.55841   2.56342   2.56633   2.57286
 Alpha virt. eigenvalues --    2.58120   2.59955   2.60590   2.61391   2.61862
 Alpha virt. eigenvalues --    2.62508   2.63095   2.64698   2.65130   2.65746
 Alpha virt. eigenvalues --    2.67317   2.67431   2.68766   2.69041   2.69907
 Alpha virt. eigenvalues --    2.70668   2.71338   2.73164   2.73645   2.74044
 Alpha virt. eigenvalues --    2.74544   2.76657   2.77221   2.78223   2.78498
 Alpha virt. eigenvalues --    2.78737   2.79430   2.79850   2.80352   2.83342
 Alpha virt. eigenvalues --    2.83540   2.84070   2.84637   2.84731   2.87461
 Alpha virt. eigenvalues --    2.88735   2.89058   2.89920   2.90598   2.90636
 Alpha virt. eigenvalues --    2.94143   2.94280   2.94759   2.94969   2.95569
 Alpha virt. eigenvalues --    2.96074   2.97509   2.97861   2.99479   3.01341
 Alpha virt. eigenvalues --    3.01612   3.01843   3.02007   3.02513   3.03698
 Alpha virt. eigenvalues --    3.04720   3.07000   3.07464   3.07972   3.08402
 Alpha virt. eigenvalues --    3.09649   3.23080   3.25012   3.27637   3.28371
 Alpha virt. eigenvalues --    3.30889   3.34827   3.38914   3.42780   3.42916
 Alpha virt. eigenvalues --    3.43137   3.43289   3.44957   3.45501   3.45905
 Alpha virt. eigenvalues --    3.54481   3.58779   3.60035   3.62997   3.63761
 Alpha virt. eigenvalues --    3.63881   3.65231   3.71146   3.71513   3.72164
 Alpha virt. eigenvalues --    3.74836   3.75133   3.85614   3.87033   3.87898
 Alpha virt. eigenvalues --    3.88486   3.90868   3.95722   3.96735   3.97082
 Alpha virt. eigenvalues --    3.97801   3.98816   4.00645   4.06021   4.06183
 Alpha virt. eigenvalues --    4.06927   4.08279   4.09931   4.10398   4.10441
 Alpha virt. eigenvalues --    4.10915   4.11190   4.11594   4.12264   4.14823
 Alpha virt. eigenvalues --    4.17548   4.24018   4.25282   4.33990   4.90845
 Alpha virt. eigenvalues --    4.92939   4.97837   4.98327   5.02505   5.06415
 Alpha virt. eigenvalues --    5.06552   5.07184   5.15090   5.19376   5.20756
 Alpha virt. eigenvalues --    5.20871   5.24642   5.34739   5.35371   5.35973
 Alpha virt. eigenvalues --    5.86071   5.87938   5.88725   5.89738   6.62225
 Alpha virt. eigenvalues --    6.67102   6.91801  23.73272  24.09714  24.10020
 Alpha virt. eigenvalues --   24.10431  24.16829  24.24568  24.27233  24.27331
 Alpha virt. eigenvalues --   24.27614  24.29267  24.51185  24.54291  24.70287
 Alpha virt. eigenvalues --   35.70983  35.71299  35.73573  50.06562  50.12704
 Alpha virt. eigenvalues --   50.13262  50.13816  66.96400
          Condensed to atoms (all electrons):
               1          2          3          4          5          6
     1  C    8.825232  -0.280688  -1.356760   0.432126  -1.941274   0.371639
     2  C   -0.280688   9.766683  -2.696533  -1.061066   2.441844  -2.465116
     3  C   -1.356760  -2.696533   9.274875   0.509584  -1.841455   2.094163
     4  C    0.432126  -1.061066   0.509584   6.697783   0.571471  -1.165213
     5  C   -1.941274   2.441844  -1.841455   0.571471  10.271021  -3.403279
     6  C    0.371639  -2.465116   2.094163  -1.165213  -3.403279  10.185198
     7  F    0.270044  -0.163200   0.045289   0.012114   0.073508  -0.163953
     8  H   -0.240783   0.422934  -0.209651   0.066543   0.009954  -0.118165
     9  H    0.030833  -0.048687   0.451160  -0.107418  -0.021462   0.067774
    10  H   -0.002123  -0.024306  -0.053394   0.508620  -0.048868  -0.038961
    11  H    0.027617   0.054963  -0.015459  -0.112784   0.441575  -0.031818
    12  H   -0.179238  -0.107600   0.008401   0.087001  -0.205168   0.408902
    13  O   -0.020613  -0.006542  -0.001602   0.000597  -0.001198  -0.004757
    14  C    0.005088   0.000184   0.000509   0.000081   0.000760   0.001180
    15  H    0.000591  -0.000530  -0.000201   0.000056  -0.000291  -0.000895
    16  H   -0.002152   0.000837   0.000151  -0.000064   0.000424   0.001044
    17  H    0.064561  -0.012864  -0.042234   0.006442   0.017169  -0.048715
    18  N   -0.105415   0.032648   0.021993  -0.002683   0.044884   0.023757
    19  C    0.041016  -0.012737   0.004492   0.000475   0.002033   0.003330
    20  O    0.005515  -0.001629  -0.000225   0.000145  -0.002129  -0.001169
    21  C    0.004917   0.007907  -0.022509  -0.001038   0.012329  -0.009991
    22  H    0.009735  -0.001488  -0.002443   0.000119  -0.000686  -0.002189
    23  H    0.002181  -0.004730   0.000564   0.000577  -0.000319   0.000739
    24  H   -0.000113   0.002001   0.006645   0.001651  -0.001394   0.003529
    25  H    0.125412  -0.033012   0.003956   0.012528  -0.064145  -0.018834
    26  H   -0.082197   0.066725  -0.119131  -0.020222   0.091483   0.053205
    27  N   -0.066211  -0.067983   0.027908   0.013553  -0.000778  -0.008161
    28  C    0.047025   0.010326  -0.004424  -0.005173   0.005884  -0.020335
    29  O    0.003576   0.009566  -0.003769   0.000117  -0.000181  -0.000200
    30  C    0.001119  -0.010854   0.035497   0.007664  -0.011614  -0.006945
    31  H    0.005440   0.001047  -0.004395  -0.000165  -0.000144  -0.001234
    32  H   -0.011004  -0.007560   0.002532   0.000432   0.002918  -0.000217
    33  H    0.016362   0.021189  -0.000415  -0.001465  -0.003882   0.001568
    34  H    0.066663   0.047860  -0.056409  -0.006179  -0.001870  -0.011032
    35  H   -0.019838   0.007166   0.113393  -0.043380  -0.205881   0.054408
    36  N   -0.057072  -0.003787  -0.005073   0.021149   0.037464  -0.070483
    37  C    0.049672  -0.018485   0.004110  -0.002631  -0.007331   0.013087
    38  O    0.003051  -0.000112  -0.000375  -0.000382  -0.004546   0.009963
    39  C   -0.011254   0.000555  -0.015209   0.011330   0.055276  -0.004561
    40  H    0.004328  -0.000865  -0.000223  -0.000522  -0.003941   0.002133
    41  H    0.016427   0.000656  -0.003303  -0.001632  -0.002157   0.021200
    42  H   -0.011225   0.000126   0.002709   0.001264   0.003083  -0.007377
    43  H    0.017534   0.002747  -0.010425  -0.019363  -0.021709   0.058647
               7          8          9         10         11         12
     1  C    0.270044  -0.240783   0.030833  -0.002123   0.027617  -0.179238
     2  C   -0.163200   0.422934  -0.048687  -0.024306   0.054963  -0.107600
     3  C    0.045289  -0.209651   0.451160  -0.053394  -0.015459   0.008401
     4  C    0.012114   0.066543  -0.107418   0.508620  -0.112784   0.087001
     5  C    0.073508   0.009954  -0.021462  -0.048868   0.441575  -0.205168
     6  C   -0.163953  -0.118165   0.067774  -0.038961  -0.031818   0.408902
     7  F    9.045384  -0.022596  -0.000603   0.000880   0.000316  -0.024191
     8  H   -0.022596   1.305416  -0.106733   0.019048  -0.009955  -0.001510
     9  H   -0.000603  -0.106733   0.517573  -0.025986   0.006322  -0.007605
    10  H    0.000880   0.019048  -0.025986   0.508194  -0.024900   0.015478
    11  H    0.000316  -0.009955   0.006322  -0.024900   0.508771  -0.086872
    12  H   -0.024191  -0.001510  -0.007605   0.015478  -0.086872   1.129455
    13  O    0.007538  -0.000438  -0.000063   0.000022  -0.000051   0.000450
    14  C    0.001512   0.002018  -0.000007   0.000010   0.000015   0.000437
    15  H   -0.000263  -0.000216  -0.000000  -0.000000  -0.000001   0.000198
    16  H   -0.000497  -0.000281   0.000004  -0.000000   0.000011  -0.000717
    17  H    0.059221  -0.072144   0.001702  -0.002642   0.004470  -0.047128
    18  N   -0.032311  -0.000586   0.000618   0.000165   0.000773   0.003086
    19  C   -0.007104   0.015086  -0.000236   0.000394  -0.000270  -0.000342
    20  O   -0.000131   0.000621  -0.000020  -0.000014   0.000005  -0.001290
    21  C   -0.005229   0.031429  -0.001526   0.000397  -0.000391   0.005132
    22  H   -0.000666   0.004313  -0.000065   0.000012  -0.000042  -0.000475
    23  H    0.000192   0.009260  -0.000457   0.000082  -0.000091   0.000338
    24  H    0.000706  -0.024897   0.001117  -0.000187   0.000172   0.001653
    25  H   -0.008688   0.002585   0.000252  -0.000126  -0.002028   0.006858
    26  H    0.002508  -0.162984   0.011884  -0.000356  -0.002219   0.087180
    27  N   -0.009046   0.162034  -0.008406   0.000714  -0.000357  -0.008611
    28  C    0.002573  -0.036755   0.002289  -0.000711   0.000795  -0.008942
    29  O    0.000009  -0.020231   0.000677   0.000001  -0.000005   0.000113
    30  C    0.006861   0.036830  -0.002326   0.000050   0.000233  -0.008539
    31  H   -0.000455   0.000120  -0.000461   0.000051  -0.000003  -0.000016
    32  H    0.000549   0.016428  -0.000567  -0.000009   0.000061  -0.001936
    33  H    0.000005  -0.034902   0.002218  -0.000178   0.000063   0.000035
    34  H   -0.004681  -0.099864   0.003022  -0.000128   0.000254  -0.000763
    35  H    0.005218   0.070717  -0.000397  -0.001976   0.006314  -0.135015
    36  N   -0.012100  -0.005895  -0.000708   0.000728  -0.005935   0.126541
    37  C    0.002295  -0.007400   0.000628  -0.000472   0.001156  -0.013879
    38  O    0.000060   0.000115  -0.000009  -0.000003   0.000622  -0.019407
    39  C    0.006468  -0.005455   0.000023   0.000252  -0.000760   0.024125
    40  H   -0.000347  -0.000009  -0.000000   0.000060  -0.000470   0.001330
    41  H   -0.000333   0.000091   0.000052  -0.000135   0.001940  -0.031568
    42  H    0.000580  -0.001715   0.000057   0.000002  -0.000557   0.016138
    43  H   -0.001438  -0.000335  -0.000082   0.000062   0.004402  -0.094362
              13         14         15         16         17         18
     1  C   -0.020613   0.005088   0.000591  -0.002152   0.064561  -0.105415
     2  C   -0.006542   0.000184  -0.000530   0.000837  -0.012864   0.032648
     3  C   -0.001602   0.000509  -0.000201   0.000151  -0.042234   0.021993
     4  C    0.000597   0.000081   0.000056  -0.000064   0.006442  -0.002683
     5  C   -0.001198   0.000760  -0.000291   0.000424   0.017169   0.044884
     6  C   -0.004757   0.001180  -0.000895   0.001044  -0.048715   0.023757
     7  F    0.007538   0.001512  -0.000263  -0.000497   0.059221  -0.032311
     8  H   -0.000438   0.002018  -0.000216  -0.000281  -0.072144  -0.000586
     9  H   -0.000063  -0.000007  -0.000000   0.000004   0.001702   0.000618
    10  H    0.000022   0.000010  -0.000000  -0.000000  -0.002642   0.000165
    11  H   -0.000051   0.000015  -0.000001   0.000011   0.004470   0.000773
    12  H    0.000450   0.000437   0.000198  -0.000717  -0.047128   0.003086
    13  O    8.111835   0.242987  -0.092286  -0.093186   0.031074  -0.004130
    14  C    0.242987   4.859716   0.410459   0.401649  -0.011951   0.000513
    15  H   -0.092286   0.410459   0.722099  -0.154539   0.009107   0.001475
    16  H   -0.093186   0.401649  -0.154539   0.737344  -0.001868   0.001100
    17  H    0.031074  -0.011951   0.009107  -0.001868   1.277508   0.344011
    18  N   -0.004130   0.000513   0.001475   0.001100   0.344011   7.351860
    19  C   -0.002961   0.001776  -0.001441  -0.000119  -0.321722   0.129149
    20  O    0.000145  -0.000139  -0.000125  -0.000043   0.014621  -0.191612
    21  C   -0.000903   0.002110  -0.001802   0.000343  -0.154110   0.180570
    22  H    0.000193   0.000819  -0.000675  -0.000002  -0.060588  -0.135266
    23  H   -0.001205   0.001352  -0.000525   0.000050  -0.019851  -0.045435
    24  H    0.000034  -0.001187   0.000557  -0.000169   0.049508  -0.039934
    25  H   -0.001223   0.000379  -0.001160  -0.001355  -0.083302  -0.487271
    26  H    0.058651  -0.012947   0.000023  -0.001662  -0.155806  -0.007241
    27  N   -0.009197   0.004432  -0.000596   0.000329   0.011133   0.003452
    28  C   -0.007058   0.000269   0.000425   0.000013   0.019502   0.004142
    29  O    0.000152  -0.000175   0.000071  -0.000078   0.000495  -0.000106
    30  C   -0.009020   0.001989  -0.000950   0.001878   0.015842   0.000838
    31  H    0.000025   0.000235   0.000086  -0.000186   0.001577  -0.000067
    32  H    0.000000   0.000122   0.000060  -0.000802   0.000208   0.000187
    33  H   -0.000520  -0.000689  -0.000141   0.000483   0.000858  -0.000014
    34  H    0.000290  -0.005395   0.000619   0.000320   0.043384  -0.001954
    35  H    0.050360  -0.013379   0.002624  -0.001116  -0.071382  -0.004058
    36  N   -0.008545   0.005556  -0.000973   0.000118  -0.006677   0.003408
    37  C   -0.005463   0.001182  -0.000077  -0.000246  -0.004717  -0.002048
    38  O    0.000142  -0.000284   0.000087  -0.000057   0.001478  -0.000047
    39  C   -0.007605   0.001994  -0.001218   0.001482   0.005304   0.000043
    40  H    0.000130   0.000141   0.000108  -0.000168   0.001525  -0.000125
    41  H   -0.000594  -0.000655  -0.000179   0.000498   0.000191   0.000059
    42  H    0.000223   0.000538  -0.000087  -0.000848  -0.001746  -0.000070
    43  H   -0.000156  -0.007147   0.000755   0.001731   0.064310   0.014354
              19         20         21         22         23         24
     1  C    0.041016   0.005515   0.004917   0.009735   0.002181  -0.000113
     2  C   -0.012737  -0.001629   0.007907  -0.001488  -0.004730   0.002001
     3  C    0.004492  -0.000225  -0.022509  -0.002443   0.000564   0.006645
     4  C    0.000475   0.000145  -0.001038   0.000119   0.000577   0.001651
     5  C    0.002033  -0.002129   0.012329  -0.000686  -0.000319  -0.001394
     6  C    0.003330  -0.001169  -0.009991  -0.002189   0.000739   0.003529
     7  F   -0.007104  -0.000131  -0.005229  -0.000666   0.000192   0.000706
     8  H    0.015086   0.000621   0.031429   0.004313   0.009260  -0.024897
     9  H   -0.000236  -0.000020  -0.001526  -0.000065  -0.000457   0.001117
    10  H    0.000394  -0.000014   0.000397   0.000012   0.000082  -0.000187
    11  H   -0.000270   0.000005  -0.000391  -0.000042  -0.000091   0.000172
    12  H   -0.000342  -0.001290   0.005132  -0.000475   0.000338   0.001653
    13  O   -0.002961   0.000145  -0.000903   0.000193  -0.001205   0.000034
    14  C    0.001776  -0.000139   0.002110   0.000819   0.001352  -0.001187
    15  H   -0.001441  -0.000125  -0.001802  -0.000675  -0.000525   0.000557
    16  H   -0.000119  -0.000043   0.000343  -0.000002   0.000050  -0.000169
    17  H   -0.321722   0.014621  -0.154110  -0.060588  -0.019851   0.049508
    18  N    0.129149  -0.191612   0.180570  -0.135266  -0.045435  -0.039934
    19  C    5.246311   0.538763  -0.002812   0.054466  -0.002981  -0.026666
    20  O    0.538763   8.086939  -0.062547   0.051213  -0.002556  -0.005972
    21  C   -0.002812  -0.062547   5.148369   0.442868   0.418849   0.388154
    22  H    0.054466   0.051213   0.442868   0.466398  -0.021369  -0.032983
    23  H   -0.002981  -0.002556   0.418849  -0.021369   0.581656  -0.079448
    24  H   -0.026666  -0.005972   0.388154  -0.032983  -0.079448   0.603862
    25  H    0.215059  -0.028079  -0.041790   0.045407  -0.002863  -0.010551
    26  H    0.021217  -0.000664   0.008433  -0.000796   0.009404   0.003257
    27  N   -0.002296   0.000033   0.004533   0.000537   0.000070  -0.001451
    28  C   -0.001730   0.000067   0.001961   0.001226  -0.002721  -0.000884
    29  O   -0.000039   0.000000   0.000330   0.000038   0.000010  -0.000025
    30  C   -0.001175   0.000011  -0.000863   0.000030  -0.000099  -0.000677
    31  H   -0.000073   0.000000  -0.000451  -0.000039  -0.000026  -0.000006
    32  H   -0.000039  -0.000001   0.000084   0.000015  -0.000027  -0.000041
    33  H   -0.000075  -0.000000  -0.000052  -0.000002  -0.000036   0.000076
    34  H   -0.005839  -0.000157  -0.023857  -0.004569  -0.005343   0.007358
    35  H    0.001492   0.000883   0.007294   0.001750  -0.001379  -0.002207
    36  N   -0.002787   0.000015  -0.000088  -0.000085  -0.000152   0.000325
    37  C   -0.012608   0.000055   0.000423   0.000130   0.000121   0.000171
    38  O   -0.000063  -0.000002  -0.000062  -0.000005  -0.000000   0.000002
    39  C   -0.000242  -0.000022   0.000108  -0.000030  -0.000039   0.000144
    40  H    0.000075  -0.000003  -0.000037  -0.000002   0.000002   0.000001
    41  H    0.000016   0.000000  -0.000054  -0.000004   0.000011  -0.000003
    42  H    0.000057   0.000007   0.000075   0.000000   0.000001   0.000017
    43  H    0.035563   0.000587  -0.004466  -0.001562  -0.000080   0.000511
              25         26         27         28         29         30
     1  C    0.125412  -0.082197  -0.066211   0.047025   0.003576   0.001119
     2  C   -0.033012   0.066725  -0.067983   0.010326   0.009566  -0.010854
     3  C    0.003956  -0.119131   0.027908  -0.004424  -0.003769   0.035497
     4  C    0.012528  -0.020222   0.013553  -0.005173   0.000117   0.007664
     5  C   -0.064145   0.091483  -0.000778   0.005884  -0.000181  -0.011614
     6  C   -0.018834   0.053205  -0.008161  -0.020335  -0.000200  -0.006945
     7  F   -0.008688   0.002508  -0.009046   0.002573   0.000009   0.006861
     8  H    0.002585  -0.162984   0.162034  -0.036755  -0.020231   0.036830
     9  H    0.000252   0.011884  -0.008406   0.002289   0.000677  -0.002326
    10  H   -0.000126  -0.000356   0.000714  -0.000711   0.000001   0.000050
    11  H   -0.002028  -0.002219  -0.000357   0.000795  -0.000005   0.000233
    12  H    0.006858   0.087180  -0.008611  -0.008942   0.000113  -0.008539
    13  O   -0.001223   0.058651  -0.009197  -0.007058   0.000152  -0.009020
    14  C    0.000379  -0.012947   0.004432   0.000269  -0.000175   0.001989
    15  H   -0.001160   0.000023  -0.000596   0.000425   0.000071  -0.000950
    16  H   -0.001355  -0.001662   0.000329   0.000013  -0.000078   0.001878
    17  H   -0.083302  -0.155806   0.011133   0.019502   0.000495   0.015842
    18  N   -0.487271  -0.007241   0.003452   0.004142  -0.000106   0.000838
    19  C    0.215059   0.021217  -0.002296  -0.001730  -0.000039  -0.001175
    20  O   -0.028079  -0.000664   0.000033   0.000067   0.000000   0.000011
    21  C   -0.041790   0.008433   0.004533   0.001961   0.000330  -0.000863
    22  H    0.045407  -0.000796   0.000537   0.001226   0.000038   0.000030
    23  H   -0.002863   0.009404   0.000070  -0.002721   0.000010  -0.000099
    24  H   -0.010551   0.003257  -0.001451  -0.000884  -0.000025  -0.000677
    25  H    1.309732   0.002625  -0.000536  -0.000575   0.000011  -0.000371
    26  H    0.002625   1.960282   0.129428  -0.395118   0.018713  -0.345016
    27  N   -0.000536   0.129428   7.441442   0.075687  -0.188568   0.238887
    28  C   -0.000575  -0.395118   0.075687   5.313508   0.526494   0.005081
    29  O    0.000011   0.018713  -0.188568   0.526494   8.091931  -0.063500
    30  C   -0.000371  -0.345016   0.238887   0.005081  -0.063500   5.206707
    31  H    0.000001  -0.030611  -0.127229   0.047072   0.047666   0.437073
    32  H   -0.000165  -0.002864  -0.034283  -0.015445  -0.004921   0.413902
    33  H   -0.000019   0.020107  -0.065112  -0.003508  -0.002430   0.399872
    34  H   -0.000402   0.022366  -0.463718   0.302057  -0.013039  -0.057524
    35  H    0.025873  -0.251694   0.017657   0.025680  -0.000531   0.019101
    36  N    0.016850   0.009459   0.001645   0.000004   0.000050   0.002622
    37  C    0.042556   0.023840  -0.000598  -0.001825   0.000008  -0.002184
    38  O    0.000512  -0.000443   0.000053   0.000011   0.000000  -0.000023
    39  C   -0.000060   0.022112   0.001278  -0.002871  -0.000009  -0.000411
    40  H   -0.001319  -0.000176   0.000238  -0.000251  -0.000005  -0.000361
    41  H    0.000176  -0.001281  -0.000695   0.000431   0.000018   0.001007
    42  H    0.000796   0.008061  -0.000946  -0.000077   0.000059  -0.000610
    43  H   -0.145351  -0.005975   0.001300   0.000099  -0.000009  -0.000032
              31         32         33         34         35         36
     1  C    0.005440  -0.011004   0.016362   0.066663  -0.019838  -0.057072
     2  C    0.001047  -0.007560   0.021189   0.047860   0.007166  -0.003787
     3  C   -0.004395   0.002532  -0.000415  -0.056409   0.113393  -0.005073
     4  C   -0.000165   0.000432  -0.001465  -0.006179  -0.043380   0.021149
     5  C   -0.000144   0.002918  -0.003882  -0.001870  -0.205881   0.037464
     6  C   -0.001234  -0.000217   0.001568  -0.011032   0.054408  -0.070483
     7  F   -0.000455   0.000549   0.000005  -0.004681   0.005218  -0.012100
     8  H    0.000120   0.016428  -0.034902  -0.099864   0.070717  -0.005895
     9  H   -0.000461  -0.000567   0.002218   0.003022  -0.000397  -0.000708
    10  H    0.000051  -0.000009  -0.000178  -0.000128  -0.001976   0.000728
    11  H   -0.000003   0.000061   0.000063   0.000254   0.006314  -0.005935
    12  H   -0.000016  -0.001936   0.000035  -0.000763  -0.135015   0.126541
    13  O    0.000025   0.000000  -0.000520   0.000290   0.050360  -0.008545
    14  C    0.000235   0.000122  -0.000689  -0.005395  -0.013379   0.005556
    15  H    0.000086   0.000060  -0.000141   0.000619   0.002624  -0.000973
    16  H   -0.000186  -0.000802   0.000483   0.000320  -0.001116   0.000118
    17  H    0.001577   0.000208   0.000858   0.043384  -0.071382  -0.006677
    18  N   -0.000067   0.000187  -0.000014  -0.001954  -0.004058   0.003408
    19  C   -0.000073  -0.000039  -0.000075  -0.005839   0.001492  -0.002787
    20  O    0.000000  -0.000001  -0.000000  -0.000157   0.000883   0.000015
    21  C   -0.000451   0.000084  -0.000052  -0.023857   0.007294  -0.000088
    22  H   -0.000039   0.000015  -0.000002  -0.004569   0.001750  -0.000085
    23  H   -0.000026  -0.000027  -0.000036  -0.005343  -0.001379  -0.000152
    24  H   -0.000006  -0.000041   0.000076   0.007358  -0.002207   0.000325
    25  H    0.000001  -0.000165  -0.000019  -0.000402   0.025873   0.016850
    26  H   -0.030611  -0.002864   0.020107   0.022366  -0.251694   0.009459
    27  N   -0.127229  -0.034283  -0.065112  -0.463718   0.017657   0.001645
    28  C    0.047072  -0.015445  -0.003508   0.302057   0.025680   0.000004
    29  O    0.047666  -0.004921  -0.002430  -0.013039  -0.000531   0.000050
    30  C    0.437073   0.413902   0.399872  -0.057524   0.019101   0.002622
    31  H    0.460412  -0.027833  -0.026254   0.034305  -0.001053   0.000307
    32  H   -0.027833   0.588394  -0.080395  -0.009369   0.006807  -0.000900
    33  H   -0.026254  -0.080395   0.601510  -0.000725  -0.000061  -0.000623
    34  H    0.034305  -0.009369  -0.000725   1.136190  -0.002898   0.001167
    35  H   -0.001053   0.006807  -0.000061  -0.002898   1.873986   0.195288
    36  N    0.000307  -0.000900  -0.000623   0.001167   0.195288   7.432466
    37  C   -0.000172   0.000150   0.000376  -0.000241  -0.372202   0.127306
    38  O   -0.000006   0.000054   0.000023  -0.000003   0.015917  -0.201037
    39  C   -0.000228  -0.000706   0.000847  -0.000467  -0.336250   0.231065
    40  H   -0.000110   0.000256   0.000307  -0.000146  -0.036903  -0.130816
    41  H    0.000297   0.001960  -0.002555   0.000245   0.027291  -0.062895
    42  H    0.000274  -0.005027   0.001781   0.000414  -0.007384  -0.034107
    43  H   -0.000139   0.000741   0.000280  -0.000323  -0.010985  -0.528959
              37         38         39         40         41         42
     1  C    0.049672   0.003051  -0.011254   0.004328   0.016427  -0.011225
     2  C   -0.018485  -0.000112   0.000555  -0.000865   0.000656   0.000126
     3  C    0.004110  -0.000375  -0.015209  -0.000223  -0.003303   0.002709
     4  C   -0.002631  -0.000382   0.011330  -0.000522  -0.001632   0.001264
     5  C   -0.007331  -0.004546   0.055276  -0.003941  -0.002157   0.003083
     6  C    0.013087   0.009963  -0.004561   0.002133   0.021200  -0.007377
     7  F    0.002295   0.000060   0.006468  -0.000347  -0.000333   0.000580
     8  H   -0.007400   0.000115  -0.005455  -0.000009   0.000091  -0.001715
     9  H    0.000628  -0.000009   0.000023  -0.000000   0.000052   0.000057
    10  H   -0.000472  -0.000003   0.000252   0.000060  -0.000135   0.000002
    11  H    0.001156   0.000622  -0.000760  -0.000470   0.001940  -0.000557
    12  H   -0.013879  -0.019407   0.024125   0.001330  -0.031568   0.016138
    13  O   -0.005463   0.000142  -0.007605   0.000130  -0.000594   0.000223
    14  C    0.001182  -0.000284   0.001994   0.000141  -0.000655   0.000538
    15  H   -0.000077   0.000087  -0.001218   0.000108  -0.000179  -0.000087
    16  H   -0.000246  -0.000057   0.001482  -0.000168   0.000498  -0.000848
    17  H   -0.004717   0.001478   0.005304   0.001525   0.000191  -0.001746
    18  N   -0.002048  -0.000047   0.000043  -0.000125   0.000059  -0.000070
    19  C   -0.012608  -0.000063  -0.000242   0.000075   0.000016   0.000057
    20  O    0.000055  -0.000002  -0.000022  -0.000003   0.000000   0.000007
    21  C    0.000423  -0.000062   0.000108  -0.000037  -0.000054   0.000075
    22  H    0.000130  -0.000005  -0.000030  -0.000002  -0.000004   0.000000
    23  H    0.000121  -0.000000  -0.000039   0.000002   0.000011   0.000001
    24  H    0.000171   0.000002   0.000144   0.000001  -0.000003   0.000017
    25  H    0.042556   0.000512  -0.000060  -0.001319   0.000176   0.000796
    26  H    0.023840  -0.000443   0.022112  -0.000176  -0.001281   0.008061
    27  N   -0.000598   0.000053   0.001278   0.000238  -0.000695  -0.000946
    28  C   -0.001825   0.000011  -0.002871  -0.000251   0.000431  -0.000077
    29  O    0.000008   0.000000  -0.000009  -0.000005   0.000018   0.000059
    30  C   -0.002184  -0.000023  -0.000411  -0.000361   0.001007  -0.000610
    31  H   -0.000172  -0.000006  -0.000228  -0.000110   0.000297   0.000274
    32  H    0.000150   0.000054  -0.000706   0.000256   0.001960  -0.005027
    33  H    0.000376   0.000023   0.000847   0.000307  -0.002555   0.001781
    34  H   -0.000241  -0.000003  -0.000467  -0.000146   0.000245   0.000414
    35  H   -0.372202   0.015917  -0.336250  -0.036903   0.027291  -0.007384
    36  N    0.127306  -0.201037   0.231065  -0.130816  -0.062895  -0.034107
    37  C    5.331924   0.544640   0.011760   0.044381  -0.007317  -0.013976
    38  O    0.544640   8.080215  -0.063857   0.049062  -0.002760  -0.005071
    39  C    0.011760  -0.063857   5.209671   0.435863   0.398040   0.418580
    40  H    0.044381   0.049062   0.435863   0.463034  -0.026821  -0.027646
    41  H   -0.007317  -0.002760   0.398040  -0.026821   0.601334  -0.080807
    42  H   -0.013976  -0.005071   0.418580  -0.027646  -0.080807   0.589198
    43  H    0.173372  -0.011289  -0.065569   0.043268  -0.002374  -0.012663
              43
     1  C    0.017534
     2  C    0.002747
     3  C   -0.010425
     4  C   -0.019363
     5  C   -0.021709
     6  C    0.058647
     7  F   -0.001438
     8  H   -0.000335
     9  H   -0.000082
    10  H    0.000062
    11  H    0.004402
    12  H   -0.094362
    13  O   -0.000156
    14  C   -0.007147
    15  H    0.000755
    16  H    0.001731
    17  H    0.064310
    18  N    0.014354
    19  C    0.035563
    20  O    0.000587
    21  C   -0.004466
    22  H   -0.001562
    23  H   -0.000080
    24  H    0.000511
    25  H   -0.145351
    26  H   -0.005975
    27  N    0.001300
    28  C    0.000099
    29  O   -0.000009
    30  C   -0.000032
    31  H   -0.000139
    32  H    0.000741
    33  H    0.000280
    34  H   -0.000323
    35  H   -0.010985
    36  N   -0.528959
    37  C    0.173372
    38  O   -0.011289
    39  C   -0.065569
    40  H    0.043268
    41  H   -0.002374
    42  H   -0.012663
    43  H    1.403761
 Mulliken charges:
               1
     1  C   -0.059743
     2  C    0.132407
     3  C   -0.142313
     4  C   -0.412040
     5  C   -0.287378
     6  C    0.228134
     7  F   -0.085999
     8  H    0.007958
     9  H    0.235615
    10  H    0.170254
    11  H    0.234119
    12  H    0.062322
    13  O   -0.225532
    14  C    0.103943
    15  H    0.109769
    16  H    0.110346
    17  H    0.074246
    18  N   -0.102710
    19  C    0.095585
    20  O   -0.401095
    21  C   -0.332037
    22  H    0.186764
    23  H    0.166274
    24  H    0.157343
    25  H    0.121658
    26  H   -0.031557
    27  N   -0.071566
    28  C    0.115781
    29  O   -0.402284
    30  C   -0.309999
    31  H    0.185368
    32  H    0.168251
    33  H    0.156092
    34  H    0.110384
    35  H   -0.009251
    36  N   -0.073835
    37  C    0.100527
    38  O   -0.396163
    39  C   -0.319498
    40  H    0.185024
    41  H    0.156180
    42  H    0.167896
    43  H    0.120764
 Sum of Mulliken charges =  -0.00000
 Mulliken charges with hydrogens summed into heavy atoms:
               1
     1  C   -0.059743
     2  C    0.140365
     3  C    0.093302
     4  C   -0.241787
     5  C   -0.053259
     6  C    0.290456
     7  F   -0.085999
    13  O   -0.225532
    14  C    0.324058
    18  N   -0.028464
    19  C    0.217243
    20  O   -0.401095
    21  C    0.178343
    27  N   -0.103123
    28  C    0.226165
    29  O   -0.402284
    30  C    0.199711
    36  N   -0.083086
    37  C    0.221291
    38  O   -0.396163
    39  C    0.189602
 Electronic spatial extent (au):  <R**2>=           8363.9216
 Charge=             -0.0000 electrons
[...]
     4  C   -0.005102   0.000048   0.000027   0.000064   0.000030   0.001428
     5  C   -0.009715  -0.001009  -0.004279  -0.001076  -0.000173  -0.000697
     6  C   -0.112906  -0.000906  -0.055910  -0.004728   0.002109   0.012971
     7  F   -0.009528  -0.000117  -0.005109  -0.000588  -0.000042   0.000449
     8  H    0.013294   0.000593   0.018190   0.002567   0.006629  -0.017922
     9  H   -0.000192  -0.000014  -0.000782  -0.000016  -0.000212   0.000468
    10  H    0.000213  -0.000008   0.000183   0.000004   0.000032  -0.000069
    11  H    0.000645   0.000003  -0.000052  -0.000005  -0.000019   0.000029
    12  H   -0.006026  -0.000915   0.005139  -0.000165  -0.000053   0.000896
    13  O   -0.003834   0.000074  -0.001524   0.000067  -0.000841   0.000005
    14  C    0.000516  -0.000099   0.002657   0.000653   0.001315  -0.001020
    15  H   -0.001288  -0.000146  -0.001574  -0.000467  -0.000716   0.000348
    16  H   -0.000156  -0.000024   0.000274  -0.000020   0.000008  -0.000092
    17  H   -0.273547   0.016599  -0.164111  -0.048125  -0.014655   0.037001
    18  N    0.119836  -0.171838   0.143142  -0.126339  -0.051283  -0.044481
    19  C    5.239703   0.526740  -0.011723   0.047901  -0.006161  -0.021210
    20  O    0.526740   8.058267  -0.060678   0.045686  -0.001471  -0.004813
    21  C   -0.011723  -0.060678   5.349054   0.433834   0.406237   0.377717
    22  H    0.047901   0.045686   0.433834   0.459451  -0.021890  -0.028467
    23  H   -0.006161  -0.001471   0.406237  -0.021890   0.580577  -0.071405
    24  H   -0.021210  -0.004813   0.377717  -0.028467  -0.071405   0.594299
    25  H    0.230376  -0.033052  -0.045095   0.033218  -0.002004  -0.007742
    26  H    0.013542  -0.000518   0.005817  -0.001151   0.007064   0.001245
    27  N   -0.000889   0.000028   0.004702   0.000455  -0.000015  -0.001049
    28  C   -0.000799   0.000060   0.000606   0.000945  -0.002872   0.000002
    29  O   -0.000024   0.000000   0.000266   0.000020   0.000050  -0.000032
    30  C   -0.000725   0.000009  -0.000563   0.000070  -0.000098  -0.000454
    31  H   -0.000049   0.000000  -0.000330  -0.000020  -0.000016  -0.000010
    32  H    0.000049   0.000000   0.000109   0.000014  -0.000031  -0.000020
    33  H   -0.000066  -0.000000   0.000008   0.000002  -0.000021   0.000051
    34  H   -0.005007  -0.000208  -0.019899  -0.003376  -0.003055   0.005035
    35  H   -0.003817   0.000446   0.003119   0.000994  -0.001480  -0.000235
    36  N   -0.003829   0.000029  -0.000001  -0.000063  -0.000017   0.000181
    37  C   -0.012087   0.000046   0.000080   0.000142   0.000102  -0.000000
    38  O   -0.000029  -0.000002  -0.000031  -0.000003  -0.000001   0.000002
    39  C   -0.000021  -0.000005   0.000263  -0.000008   0.000006   0.000034
    40  H    0.000127  -0.000002  -0.000009  -0.000000   0.000000  -0.000002
    41  H    0.000028   0.000001  -0.000052  -0.000002   0.000007  -0.000001
    42  H   -0.000030   0.000004   0.000064  -0.000000   0.000009   0.000006
    43  H    0.038882   0.000577  -0.002032  -0.001175  -0.000050   0.000385
              25         26         27         28         29         30
     1  C    0.060311  -0.334258  -0.200072   0.100774  -0.000283   0.087012
     2  C   -0.066195   0.698339   0.138557  -0.099732   0.008963  -0.138929
     3  C   -0.003257   0.043396   0.072572  -0.017556  -0.002143  -0.010444
     4  C    0.011747   0.013902   0.013922  -0.006995   0.000043  -0.000614
     5  C   -0.024531   0.025661  -0.004286   0.005701  -0.000111  -0.003787
     6  C    0.045139  -0.472348  -0.102115   0.052815  -0.000452   0.085713
     7  F   -0.008764  -0.005347  -0.008269   0.000285  -0.000073   0.005950
     8  H    0.002518  -0.085232   0.113501  -0.040666  -0.014504   0.023256
     9  H    0.000256   0.003892  -0.005710   0.001655   0.000319  -0.001149
    10  H   -0.000073  -0.000485   0.000309  -0.000292   0.000004   0.000086
    11  H   -0.001333   0.000875  -0.000129   0.000218  -0.000003  -0.000111
    12  H    0.001764   0.039120  -0.004599  -0.004136   0.000047  -0.004035
    13  O   -0.001409   0.055240  -0.008063  -0.007294   0.000080  -0.008880
    14  C    0.000321  -0.010400   0.004118  -0.001202  -0.000139   0.002421
    15  H   -0.000887  -0.000536  -0.000602   0.000351   0.000055  -0.000549
    16  H   -0.001021  -0.000646   0.000543   0.000002  -0.000043   0.001075
    17  H   -0.025991  -0.115877   0.004068   0.016338   0.000262   0.012321
    18  N   -0.412167   0.007609   0.002554   0.000555  -0.000043  -0.000425
    19  C    0.230376   0.013542  -0.000889  -0.000799  -0.000024  -0.000725
    20  O   -0.033052  -0.000518   0.000028   0.000060   0.000000   0.000009
    21  C   -0.045095   0.005817   0.004702   0.000606   0.000266  -0.000563
    22  H    0.033218  -0.001151   0.000455   0.000945   0.000020   0.000070
    23  H   -0.002004   0.007064  -0.000015  -0.002872   0.000050  -0.000098
    24  H   -0.007742   0.001245  -0.001049   0.000002  -0.000032  -0.000454
    25  H    1.179185  -0.002857  -0.000099   0.000086   0.000003   0.000122
    26  H   -0.002857   1.669181   0.155659  -0.283526   0.025891  -0.318640
    27  N   -0.000099   0.155659   7.355239   0.072260  -0.168174   0.172980
    28  C    0.000086  -0.283526   0.072260   5.245773   0.508747  -0.020614
    29  O    0.000003   0.025891  -0.168174   0.508747   8.067245  -0.061483
    30  C    0.000122  -0.318640   0.172980  -0.020614  -0.061483   5.405179
    31  H    0.000013  -0.032621  -0.118742   0.039860   0.038927   0.440460
    32  H   -0.000075   0.011311  -0.039931  -0.017978  -0.003370   0.393117
    33  H   -0.000003   0.013643  -0.063058  -0.001540  -0.002193   0.389027
    34  H   -0.000950   0.060012  -0.373116   0.333529  -0.019561  -0.051372
    35  H    0.018359  -0.201293   0.014652   0.017290  -0.000394   0.020723
    36  N    0.016671   0.012016  -0.000951  -0.000420   0.000024   0.001078
    37  C    0.038397   0.015871  -0.000667  -0.000770   0.000006  -0.001873
    38  O    0.000537  -0.000304   0.000024   0.000006   0.000000  -0.000010
    39  C    0.001085   0.022503   0.000496  -0.002365  -0.000002  -0.002858
    40  H   -0.000994   0.000124   0.000176  -0.000110  -0.000002  -0.000301
    41  H    0.000128   0.000651  -0.000391   0.000133   0.000011   0.000348
    42  H    0.000579   0.003798  -0.000586  -0.000061   0.000029   0.000216
    43  H   -0.134688  -0.002132   0.000585   0.000128  -0.000003  -0.000197
              31         32         33         34         35         36
     1  C    0.015060  -0.021026   0.030626   0.086991  -0.374182  -0.150484
     2  C   -0.014457   0.014285  -0.005016  -0.051245  -0.544537  -0.061994
     3  C   -0.004807   0.005228  -0.011427  -0.048531   0.016969  -0.004695
     4  C   -0.000694   0.000493  -0.001958  -0.008470   0.018338   0.017300
     5  C   -0.000075   0.000651  -0.000734   0.003114  -0.002493   0.058643
     6  C    0.006114  -0.011668   0.017023   0.035887   0.801107   0.082892
     7  F   -0.000267   0.000568  -0.000008  -0.005616  -0.008986  -0.009249
     8  H    0.000439   0.013103  -0.028318  -0.057229   0.030617  -0.003307
     9  H   -0.000138  -0.000360   0.001410   0.002088   0.001267  -0.000305
    10  H    0.000016  -0.000009  -0.000063  -0.000085  -0.000933   0.000361
    11  H   -0.000011   0.000038  -0.000005   0.000060  -0.000522  -0.003981
    12  H    0.000045  -0.001030   0.000105  -0.000278  -0.052444   0.081420
    13  O   -0.000127   0.000216  -0.000347  -0.000104   0.053354  -0.008374
    14  C    0.000144   0.000423  -0.000595  -0.004642  -0.011896   0.004644
    15  H    0.000053   0.000100  -0.000089   0.000534   0.002696  -0.001002
    16  H   -0.000099  -0.001202   0.000342   0.000369  -0.002285   0.000547
    17  H    0.001203  -0.000566   0.000642   0.031854  -0.048920  -0.006660
    18  N   -0.000099   0.000153  -0.000047  -0.001495  -0.001264   0.002737
    19  C   -0.000049   0.000049  -0.000066  -0.005007  -0.003817  -0.003829
    20  O    0.000000   0.000000  -0.000000  -0.000208   0.000446   0.000029
    21  C   -0.000330   0.000109   0.000008  -0.019899   0.003119  -0.000001
    22  H   -0.000020   0.000014   0.000002  -0.003376   0.000994  -0.000063
    23  H   -0.000016  -0.000031  -0.000021  -0.003055  -0.001480  -0.000017
    24  H   -0.000010  -0.000020   0.000051   0.005035  -0.000235   0.000181
    25  H    0.000013  -0.000075  -0.000003  -0.000950   0.018359   0.016671
    26  H   -0.032621   0.011311   0.013643   0.060012  -0.201293   0.012016
    27  N   -0.118742  -0.039931  -0.063058  -0.373116   0.014652  -0.000951
    28  C    0.039860  -0.017978  -0.001540   0.333529   0.017290  -0.000420
    29  O    0.038927  -0.003370  -0.002193  -0.019561  -0.000394   0.000024
    30  C    0.440460   0.393117   0.389027  -0.051372   0.020723   0.001078
    31  H    0.457553  -0.027984  -0.024297   0.021532  -0.000089   0.000198
    32  H   -0.027984   0.586234  -0.071951  -0.007198   0.002766  -0.000535
    33  H   -0.024297  -0.071951   0.588533  -0.000900   0.001358  -0.000389
    34  H    0.021532  -0.007198  -0.000900   0.961874  -0.001964   0.000573
    35  H   -0.000089   0.002766   0.001358  -0.001964   1.611919   0.203348
    36  N    0.000198  -0.000535  -0.000389   0.000573   0.203348   7.342288
    37  C   -0.000080   0.000036   0.000148   0.000029  -0.275608   0.125456
    38  O   -0.000002   0.000025   0.000013  -0.000001   0.024174  -0.181042
    39  C   -0.000273   0.000239   0.000233  -0.000286  -0.312633   0.171761
    40  H   -0.000046   0.000145   0.000112  -0.000055  -0.035320  -0.120778
    41  H    0.000110   0.001146  -0.001537   0.000093   0.016522  -0.061868
    42  H    0.000139  -0.003413   0.001063   0.000173   0.008541  -0.040756
    43  H   -0.000060   0.000309   0.000115   0.000048   0.033160  -0.433095
              37         38         39         40         41         42
     1  C    0.091064  -0.002447   0.094691   0.013550   0.028407  -0.020224
     2  C    0.042980  -0.000730   0.090961   0.005146   0.012864  -0.008361
     3  C    0.006411  -0.000223  -0.003152  -0.000038  -0.000483   0.000696
     4  C   -0.006592  -0.000135  -0.001189  -0.000862  -0.002210   0.000911
     5  C   -0.016667  -0.001547   0.002023  -0.003542  -0.009961   0.004578
     6  C   -0.081484   0.009781  -0.147234  -0.013117  -0.002044   0.011548
     7  F    0.001143  -0.000045   0.006613  -0.000144  -0.000110   0.000664
     8  H   -0.003834   0.000059  -0.002262   0.000044   0.000170  -0.000991
     9  H    0.000222  -0.000005  -0.000142  -0.000005   0.000005   0.000031
    10  H   -0.000220   0.000002   0.000136   0.000018  -0.000061  -0.000002
    11  H    0.000678   0.000275   0.000123  -0.000148   0.001301  -0.000338
    12  H   -0.021412  -0.013366   0.009808   0.001293  -0.025246   0.011869
    13  O   -0.006272   0.000072  -0.008254  -0.000087  -0.000370   0.000242
    14  C   -0.000069  -0.000231   0.002581   0.000099  -0.000520   0.000563
    15  H   -0.000172   0.000068  -0.000887   0.000059  -0.000115   0.000005
    16  H    0.000082  -0.000016   0.001062  -0.000071   0.000351  -0.001137
    17  H   -0.000230   0.000785   0.002954   0.000976   0.000184  -0.001249
    18  N   -0.003264  -0.000006  -0.000206  -0.000094   0.000028  -0.000006
    19  C   -0.012087  -0.000029  -0.000021   0.000127   0.000028  -0.000030
    20  O    0.000046  -0.000002  -0.000005  -0.000002   0.000001   0.000004
    21  C    0.000080  -0.000031   0.000263  -0.000009  -0.000052   0.000064
    22  H    0.000142  -0.000003  -0.000008  -0.000000  -0.000002  -0.000000
    23  H    0.000102  -0.000001   0.000006   0.000000   0.000007   0.000009
    24  H   -0.000000   0.000002   0.000034  -0.000002  -0.000001   0.000006
    25  H    0.038397   0.000537   0.001085  -0.000994   0.000128   0.000579
    26  H    0.015871  -0.000304   0.022503   0.000124   0.000651   0.003798
    27  N   -0.000667   0.000024   0.000496   0.000176  -0.000391  -0.000586
    28  C   -0.000770   0.000006  -0.002365  -0.000110   0.000133  -0.000061
    29  O    0.000006   0.000000  -0.000002  -0.000002   0.000011   0.000029
    30  C   -0.001873  -0.000010  -0.002858  -0.000301   0.000348   0.000216
    31  H   -0.000080  -0.000002  -0.000273  -0.000046   0.000110   0.000139
    32  H    0.000036   0.000025   0.000239   0.000145   0.001146  -0.003413
    33  H    0.000148   0.000013   0.000233   0.000112  -0.001537   0.001063
    34  H    0.000029  -0.000001  -0.000286  -0.000055   0.000093   0.000173
    35  H   -0.275608   0.024174  -0.312633  -0.035320   0.016522   0.008541
    36  N    0.125456  -0.181042   0.171761  -0.120778  -0.061868  -0.040756
    37  C    5.254441   0.528705  -0.012381   0.037370  -0.004369  -0.016042
    38  O    0.528705   8.055070  -0.062329   0.039948  -0.002310  -0.003470
    39  C   -0.012381  -0.062329   5.408968   0.438204   0.389067   0.396512
    40  H    0.037370   0.039948   0.438204   0.459027  -0.024429  -0.027909
    41  H   -0.004369  -0.002310   0.389067  -0.024429   0.587956  -0.071784
    42  H   -0.016042  -0.003470   0.396512  -0.027909  -0.071784   0.586082
    43  H    0.219972  -0.019229  -0.063287   0.027895  -0.001927  -0.009038
              43
     1  C    0.033728
     2  C    0.036515
     3  C   -0.000762
     4  C   -0.016529
     5  C   -0.017444
     6  C   -0.026747
     7  F   -0.002743
     8  H   -0.000386
     9  H   -0.000085
    10  H   -0.000018
    11  H    0.002931
    12  H   -0.049029
    13  O   -0.000356
    14  C   -0.006032
    15  H    0.000712
    16  H    0.001337
    17  H    0.040129
    18  N    0.012634
    19  C    0.038882
    20  O    0.000577
    21  C   -0.002032
    22  H   -0.001175
    23  H   -0.000050
    24  H    0.000385
    25  H   -0.134688
    26  H   -0.002132
    27  N    0.000585
    28  C    0.000128
    29  O   -0.000003
    30  C   -0.000197
    31  H   -0.000060
    32  H    0.000309
    33  H    0.000115
    34  H    0.000048
    35  H    0.033160
    36  N   -0.433095
    37  C    0.219972
    38  O   -0.019229
    39  C   -0.063287
    40  H    0.027895
    41  H   -0.001927
    42  H   -0.009038
    43  H    1.211133
 Mulliken charges:
               1
     1  C    0.316327
     2  C    0.082962
     3  C   -0.345314
     4  C   -0.537482
     5  C   -0.432088
     6  C    0.193676
     7  F   -0.028369
     8  H    0.039089
     9  H    0.257928
    10  H    0.196143
    11  H    0.257733
    12  H    0.086808
    13  O   -0.178488
    14  C    0.032859
    15  H    0.118474
    16  H    0.119806
    17  H    0.051988
    18  N   -0.051746
    19  C    0.084908
    20  O   -0.375815
    21  C   -0.434657
    22  H    0.203117
    23  H    0.176110
    24  H    0.169540
    25  H    0.132370
    26  H   -0.038187
    27  N   -0.025885
    28  C    0.110811
    29  O   -0.377960
    30  C   -0.413050
    31  H    0.203530
    32  H    0.177589
    33  H    0.170109
    34  H    0.120848
    35  H   -0.020424
    36  N   -0.028374
    37  C    0.100715
    38  O   -0.372034
    39  C   -0.420549
    40  H    0.203753
    41  H    0.170279
    42  H    0.177075
    43  H    0.125873
 Sum of Mulliken charges =  -0.00000
 Mulliken charges with hydrogens summed into heavy atoms:
               1
     1  C    0.316327
     2  C    0.122051
     3  C   -0.087386
     4  C   -0.341339
     5  C   -0.174355
     6  C    0.280484
     7  F   -0.028369
    13  O   -0.178488
    14  C    0.271140
    18  N    0.000243
    19  C    0.217278
    20  O   -0.375815
    21  C    0.114110
    27  N   -0.064071
    28  C    0.231659
    29  O   -0.377960
    30  C    0.138178
    36  N   -0.048798
    37  C    0.226588
    38  O   -0.372034
    39  C    0.130558
 Electronic spatial extent (au):  <R**2>=           8757.3665
 Charge=              0.0000 electrons
 Dipole moment (field-independent basis, Debye):
    X=             -2.1766    Y=             -2.8771    Z=              1.6325  Tot=              3.9599
 Quadrupole moment (field-independent basis, Debye-Ang):
   XX=           -183.3615   YY=           -148.7913   ZZ=            -99.3839
   XY=             -5.5923   XZ=              0.1359   YZ=              1.0892
 Traceless Quadrupole moment (field-independent basis, Debye-Ang):
   XX=            -39.5159   YY=             -4.9457   ZZ=             44.4617
   XY=             -5.5923   XZ=              0.1359   YZ=              1.0892
 Octapole moment (field-independent basis, Debye-Ang**2):
  XXX=             41.9412  YYY=           -152.0518  ZZZ=            -48.0161  XYY=           -112.8176
  XXY=             62.3150  XXZ=             75.4212  XZZ=              0.9669  YZZ=             -2.3434
  YYZ=             -8.3270  XYZ=             -3.1795
 Hexadecapole moment (field-independent basis, Debye-Ang**3):
 XXXX=          -6767.8600 YYYY=          -4297.2407 ZZZZ=          -2363.1273 XXXY=            232.9753
 XXXZ=            -79.1228 YYYX=           -352.2908 YYYZ=            117.1908 ZZZX=            -13.6984
 ZZZY=            -24.6836 XXYY=          -1662.4653 XXZZ=          -1311.9586 YYZZ=          -1167.8917
 XXYZ=            -57.2101 YYXZ=             88.3097 ZZXY=            -11.9312
 N-N= 1.658308885485D+03 E-N=-5.827220620838D+03  KE= 1.069672620321D+03
 1\1\GINC-R820\POpt\RM062X\6-311++G(d,p)\C13H22F1N3O4\ZJXU\26-Mar-2024\
 1\\# opt=z-matrix 6-311++g(d,p) m062x\\test\\0,1\C\C,1,B1\C,2,B2,1,120
 .00000011\C,3,B3,2,120.,1,0.,0\C,4,B4,3,119.99999989,2,0.,0\C,1,B5,2,1
 19.97770821,3,1.71722694,0\F,1,B6,2,119.9999999,3,-180.,0\H,2,B7,1,120
 .00000011,6,-178.28277306,0\H,3,B8,2,120.00000011,1,180.,0\H,4,B9,3,12
 0.,2,180.,0\H,5,B10,4,120.00000011,3,180.,0\H,6,B11,1,119.91553063,2,-
 177.77151684,0\O,1,B12,2,119.9999999,3,-180.,0\C,13,B13,1,179.90000005
 ,2,180.,0\H,14,B14,13,119.99996989,1,-90.04490481,0\H,14,B15,13,119.99
 996989,1,90.04490481,0\H,7,B16,1,100.00000001,2,90.,0\N,17,B17,7,179.9
 ,1,90.,0\C,18,B18,17,119.5,7,0.,0\O,19,B19,18,123.2,17,-180.,0\C,18,B2
 0,17,121.9,19,-180.,0\H,21,B21,18,110.7,17,-180.,0\H,21,B22,18,110.7,1
 7,-60.,0\H,21,B23,18,110.7,17,60.,0\H,19,B24,18,113.46721803,17,0.,0\H
 ,7,B25,1,100.00000001,2,-30.,0\N,26,B26,7,179.9,1,-30.,0\C,27,B27,26,1
 19.5,7,120.,0\O,28,B28,27,123.2,26,-180.,0\C,27,B29,26,121.9,28,-180.,
 0\H,30,B30,27,110.7,26,180.,0\H,30,B31,27,110.7,26,-60.,0\H,30,B32,27,
 110.7,26,60.,0\H,28,B33,27,113.46721803,26,0.,0\H,7,B34,1,100.00000001
 ,2,-150.,0\N,35,B35,7,179.9,1,-150.,0\C,36,B36,35,119.5,7,60.,0\O,37,B
 37,36,123.2,35,-180.,0\C,36,B38,35,121.9,37,-180.,0\H,39,B39,36,110.7,
 35,180.,0\H,39,B40,36,110.7,35,-60.,0\H,39,B41,36,110.7,35,60.,0\H,37,
 B42,36,113.46721803,35,0.,0\\B1=1.38802601\B2=1.38964266\B3=1.38714495
 \B4=1.38700271\B5=1.38780228\B6=1.36290613\B7=1.08322111\B8=1.08248677
 \B9=1.08293643\B10=1.08247934\B11=1.08330442\B12=4.08099876\B13=1.2010
 6428\B14=1.1026235\B15=1.10281106\B16=2.14283766\B17=1.00704236\B18=1.
 36031298\B19=1.21095013\B20=1.45043527\B21=1.08561104\B22=1.09310098\B
 23=1.09309984\B24=1.10241688\B25=2.25044594\B26=1.00749956\B27=1.36124
 561\B28=1.21039515\B29=1.45092801\B30=1.08556477\B31=1.09272729\B32=1.
 09285165\B33=1.10331316\B34=2.27407724\B35=1.00750226\B36=1.36154892\B
 37=1.21015692\B38=1.45083936\B39=1.08556327\B40=1.09288346\B41=1.09275
 207\B42=1.10318429\\Version=ES64L-G16RevB.01\State=1-A\HF=-1073.454025
 1\RMSD=3.261e-09\RMSF=4.878e-03\Dipole=0.2775584,-1.2275002,0.9183547\
 Quadrupole=19.0122793,-5.4736944,-13.5385849,-1.8886527,25.4510436,7.9
 969427\PG=C01 [X(C13H22F1N3O4)]\\@


 Everywhere is walking distance if you have the time.
                                    -- Steven Wright
 Job cpu time:       0 days 14 hours 58 minutes  9.1 seconds.
 Elapsed time:       0 days  3 hours 44 minutes 33.8 seconds.
 File lengths (MBytes):  RWF=    227 Int=      0 D2E=      0 Chk=     35 Scr=      1
 Normal termination of Gaussian 16 at Tue Mar 26 21:51:35 2024.
