 Entering Gaussian System, Link 0=g16
 Input=model_H1.gjf
 Output=model_H1.log
 Initial command:
 /home/lywu/software/g16/l1.exe "/home/lywu/software/g16/scr/Gau-5924.inp" -scrdir="/home/lywu/software/g16/scr/"
 Entering Link 1 = /home/lywu/software/g16/l1.exe PID=      5932.
  
 Copyright (c) 1988-2017, Gaussian, Inc.  All Rights Reserved.
  
 This is part of the Gaussian(R) 16 program.  It is based on
 the Gaussian(R) 09 system (copyright 2009, Gaussian, Inc.),
 the Gaussian(R) 03 system (copyright 2003, Gaussian, Inc.),
 the Gaussian(R) 98 system (copyright 1998, Gaussian, Inc.),
 the Gaussian(R) 94 system (copyright 1995, Gaussian, Inc.),
 the Gaussian 92(TM) system (copyright 1992, Gaussian, Inc.),
 the Gaussian 90(TM) system (copyright 1990, Gaussian, Inc.),
 the Gaussian 88(TM) system (copyright 1988, Gaussian, Inc.),
 the Gaussian 86(TM) system (copyright 1986, Carnegie Mellon
 University), and the Gaussian 82(TM) system (copyright 1983,
 Carnegie Mellon University). Gaussian is a federally registered
 trademark of Gaussian, Inc.
  
 This software contains proprietary and confidential information,
 including trade secrets, belonging to Gaussian, Inc.
  
 This software is provided under written license and may be
 used, copied, transmitted, or stored only in accord with that
 written license.
  
 The following legend is applicable only to US Government
 contracts under FAR:
  
                    RESTRICTED RIGHTS LEGEND
  
 Use, reproduction and disclosure by the US Government is
 subject to restrictions as set forth in subparagraphs (a)
 and (c) of the Commercial Computer Software - Restricted
 Rights clause in FAR 52.227-19.
  
 Gaussian, Inc.
 340 Quinnipiac St., Bldg. 40, Wallingford CT 06492
  
  
 ---------------------------------------------------------------
 Warning -- This program may not be used in any manner that
 competes with the business of Gaussian, Inc. or will provide
 assistance to any competitor of Gaussian, Inc.  The licensee
 of this program is prohibited from giving any competitor of
 Gaussian, Inc. access to this program.  By using this program,
 the user acknowledges that Gaussian, Inc. is engaged in the
 business of creating and licensing software in the field of
 computational chemistry and represents and warrants to the
 licensee that it is not a competitor of Gaussian, Inc. and that
 it will not use this program in any manner prohibited above.
 ---------------------------------------------------------------
  

 Cite this work as:
 Gaussian 16, Revision B.01,
 M. J. Frisch, G. W. Trucks, H. B. Schlegel, G. E. Scuseria, 
 M. A. Robb, J. R. Cheeseman, G. Scalmani, V. Barone, 
 G. A. Petersson, H. Nakatsuji, X. Li, M. Caricato, A. V. Marenich, 
 J. Bloino, B. G. Janesko, R. Gomperts, B. Mennucci, H. P. Hratchian, 
 J. V. Ortiz, A. F. Izmaylov, J. L. Sonnenberg, D. Williams-Young, 
 F. Ding, F. Lipparini, F. Egidi, J. Goings, B. Peng, A. Petrone, 
 T. Henderson, D. Ranasinghe, V. G. Zakrzewski, J. Gao, N. Rega, 
 G. Zheng, W. Liang, M. Hada, M. Ehara, K. Toyota, R. Fukuda, 
 J. Hasegawa, M. Ishida, T. Nakajima, Y. Honda, O. Kitao, H. Nakai, 
 T. Vreven, K. Throssell, J. A. Montgomery, Jr., J. E. Peralta, 
 F. Ogliaro, M. J. Bearpark, J. J. Heyd, E. N. Brothers, K. N. Kudin, 
 V. N. Staroverov, T. A. Keith, R. Kobayashi, J. Normand, 
 K. Raghavachari, A. P. Rendell, J. C. Burant, S. S. Iyengar, 
 J. Tomasi, M. Cossi, J. M. Millam, M. Klene, C. Adamo, R. Cammi, 
 J. W. Ochterski, R. L. Martin, K. Morokuma, O. Farkas, 
 J. B. Foresman, and D. J. Fox, Gaussian, Inc., Wallingford CT, 2016.
 
 ******************************************
 Gaussian 16:  ES64L-G16RevB.01 20-Dec-2017
                 6-Jan-2025 
 ******************************************
 %mem=4GB
 %nproc=4
 Will use up to    4 processors via shared memory.
 ----------------------------------------------------------------------
 # m062x 6-311++G(d,p) opt=(z-matrix,recalc=5) scrf=(solvent=dichloroet
 hane)
 ----------------------------------------------------------------------
 1/10=7,18=40,26=3,38=1,71=5/1,3;
 2/12=2,17=6,18=5,29=3,40=1/2;
 3/5=4,6=6,7=1111,11=2,25=1,30=1,70=2201,71=2,72=10,74=-55,140=1/1,2,3;
 4//1;
 5/5=2,38=5,53=10/2;
 8/6=4,10=90,11=11/1;
 11/6=1,8=1,9=11,15=111,16=1/1,2,10;
 10/6=1/2;
 6/7=2,8=2,9=2,10=2,28=1/1;
 7/10=1,25=1/1,2,3,16;
 1/10=7,18=40,26=3,71=5/3(3);
 2/29=3/2;
 7/9=1,25=1,44=-1/16;
 99//99;
 2/29=3/2;
 3/5=4,6=6,7=1111,11=2,25=1,30=1,70=2205,71=2,72=10,74=-55,140=1/1,2,3;
 4/5=5,16=3,69=1/1;
 5/5=2,38=5,53=10/2;
 8/6=4,10=90,11=11/1;
 11/6=1,8=1,9=11,15=111,16=1/1,2,10;
 10/6=1/2;
 7/10=1,25=1/1,2,3,16;
 1/18=40,26=3,71=5/3(-8);
 2/29=3/2;
 6/7=2,8=2,9=2,10=2,19=2,28=1/1;
 7/9=1,25=1,44=-1/16;
 99/9=1/99;
 ----
 test
 ----
 Symbolic Z-matrix:
 Charge =  0 Multiplicity = 1
 C1
 C2                   1    d1
 C3                   2    d2       1     120. 
 C4                   3    d3       2     120.     1     0.       0
 C5                   4    d4       3     120.     2     0.       0
 C6                   5    d5       4     120.     3     0.       0
 F7                   1    d6       2     120.     3     180.     0
 H8                   2    d7       3     120.     4     180.     0
 H9                   3    d8       4     120.     5     180.     0
 H10                  4    d9       5     120.     6     180.     0
 H11                  5    d10      6     120.     1     180.     0
 H12                  6    d11      1     120.     2     180.     0
 O13                  7    d12      1     179.9    3     180.     0
 C14                  13   d13      1     179.9    2     180.     0
 H15                  14   d14      1     120.     2     90.      0
 H16                  14   d15      1     120.     2    -90.      0
 H17                  7    d16      1     100.     2     90.      0
 Br18                 17   d17      7     160.     1     0.       0
       Variables:
  d1                    1.3                      
  d2                    1.3                      
  d3                    1.3                      
  d4                    1.3                      
  d5                    1.3                      
  d6                    1.4                      
  d7                    1.                       
  d8                    1.                       
  d9                    1.                       
  d10                   1.                       
  d11                   1.                       
  d12                   2.8                      
  d13                   1.2                      
  d14                   1.                       
  d15                   1.                       
  d16                   2.3                      
  d17                   0.9                      
 

 GradGradGradGradGradGradGradGradGradGradGradGradGradGradGradGradGradGrad
 Berny optimization.
 Initialization pass.
                       ----------------------------
                       !    Initial Parameters    !
                       ! (Angstroms and Degrees)  !
 ----------------------                            ----------------------
 !      Name          Value   Derivative information (Atomic Units)     !
 ------------------------------------------------------------------------
 !       d1          1.3      calculate D2E/DX2 analytically            !
 !       d2          1.3      calculate D2E/DX2 analytically            !
 !       d3          1.3      calculate D2E/DX2 analytically            !
 !       d4          1.3      calculate D2E/DX2 analytically            !
 !       d5          1.3      calculate D2E/DX2 analytically            !
 !       d6          1.4      calculate D2E/DX2 analytically            !
 !       d7          1.0      calculate D2E/DX2 analytically            !
 !       d8          1.0      calculate D2E/DX2 analytically            !
 !       d9          1.0      calculate D2E/DX2 analytically            !
 !       d10         1.0      calculate D2E/DX2 analytically            !
 !       d11         1.0      calculate D2E/DX2 analytically            !
 !       d12         2.8      calculate D2E/DX2 analytically            !
 !       d13         1.2      calculate D2E/DX2 analytically            !
 !       d14         1.0      calculate D2E/DX2 analytically            !
 !       d15         1.0      calculate D2E/DX2 analytically            !
 !       d16         2.3      calculate D2E/DX2 analytically            !
 !       d17         0.9      calculate D2E/DX2 analytically            !
 ------------------------------------------------------------------------
 Trust Radius=3.00D-01 FncErr=1.00D-07 GrdErr=1.00D-06 EigMax=2.50D+02 EigMin=1.00D-04
 Number of steps in this run=     27 maximum allowed number of steps=    100.
 GradGradGradGradGradGradGradGradGradGradGradGradGradGradGradGradGradGrad

 ---------------------------------------------------------------------------------------------------
                            Z-MATRIX (ANGSTROMS AND DEGREES)
   CD    Cent   Atom    N1       Length/X        N2       Alpha/Y        N3        Beta/Z          J
 ---------------------------------------------------------------------------------------------------
      1      1  C 
      2      2  C        1   1.300000(     1)
      3      3  C        2   1.300000(     2)      1  120.000(    18)
      4      4  C        3   1.300000(     3)      2  120.000(    19)      1    0.000(    34)      0
      5      5  C        4   1.300000(     4)      3  120.000(    20)      2    0.000(    35)      0
      6      6  C        5   1.300000(     5)      4  120.000(    21)      3    0.000(    36)      0
      7      7  F        1   1.400000(     6)      2  120.000(    22)      3  180.000(    37)      0
      8      8  H        2   1.000000(     7)      3  120.000(    23)      4  180.000(    38)      0
      9      9  H        3   1.000000(     8)      4  120.000(    24)      5  180.000(    39)      0
     10     10  H        4   1.000000(     9)      5  120.000(    25)      6  180.000(    40)      0
     11     11  H        5   1.000000(    10)      6  120.000(    26)      1  180.000(    41)      0
     12     12  H        6   1.000000(    11)      1  120.000(    27)      2  180.000(    42)      0
     13     13  O        7   2.800000(    12)      1  179.900(    28)      3  180.000(    43)      0
     14     14  C       13   1.200000(    13)      1  179.900(    29)      2  180.000(    44)      0
     15     15  H       14   1.000000(    14)      1  120.000(    30)      2   90.000(    45)      0
     16     16  H       14   1.000000(    15)      1  120.000(    31)      2  -90.000(    46)      0
     17     17  H        7   2.300000(    16)      1  100.000(    32)      2   90.000(    47)      0
     18     18  Br      17   0.900000(    17)      7  160.000(    33)      1    0.000(    48)      0
 ---------------------------------------------------------------------------------------------------
                         Z-Matrix orientation:                         
 ---------------------------------------------------------------------
 Center     Atomic      Atomic             Coordinates (Angstroms)
 Number     Number       Type             X           Y           Z
 ---------------------------------------------------------------------
      1          6           0        0.000000    0.000000    0.000000
      2          6           0        0.000000    0.000000    1.300000
      3          6           0        1.125833    0.000000    1.950000
      4          6           0        2.251666    0.000000    1.300000
      5          6           0        2.251666    0.000000   -0.000000
      6          6           0        1.125833    0.000000   -0.650000
      7          9           0       -1.212436   -0.000000   -0.700000
      8          1           0       -0.866025   -0.000000    1.800000
      9          1           0        1.125833   -0.000000    2.950000
     10          1           0        3.117691   -0.000000    1.800000
     11          1           0        3.117691   -0.000000   -0.500000
     12          1           0        1.125833   -0.000000   -1.650000
     13          8           0       -3.634860   -0.000000   -2.104230
     14          6           0       -4.672340   -0.000000   -2.707251
     15          1           0       -5.104965    0.866025   -2.957922
     16          1           0       -5.104965   -0.866025   -2.957922
     17          1           0       -1.558318    2.265058   -0.899695
     18         35           0       -1.422973    3.151385   -0.821554
 ---------------------------------------------------------------------
                    Distance matrix (angstroms):
                    1          2          3          4          5
     1  C    0.000000
     2  C    1.300000   0.000000
     3  C    2.251666   1.300000   0.000000
     4  C    2.600000   2.251666   1.300000   0.000000
     5  C    2.251666   2.600000   2.251666   1.300000   0.000000
     6  C    1.300000   2.251666   2.600000   2.251666   1.300000
     7  F    1.400000   2.338803   3.534119   4.000000   3.534119
     8  H    1.997498   1.000000   1.997498   3.157531   3.600000
     9  H    3.157531   1.997498   1.000000   1.997498   3.157531
    10  H    3.600000   3.157531   1.997498   1.000000   1.997498
    11  H    3.157531   3.600000   3.157531   1.997498   1.000000
    12  H    1.997498   3.157531   3.600000   3.157531   1.997498
    13  O    4.199999   4.980059   6.253077   6.799997   6.251317
    14  C    5.399997   6.155390   7.436988   7.999995   7.434452
    15  H    5.963218   6.703772   7.978755   8.543999   7.976172
    16  H    5.963218   6.703772   7.978755   8.543999   7.976172
    17  H    2.892800   3.521009   4.522822   4.948245   4.522822
    18  Br   3.554016   4.056731   4.910107   5.285375   4.910107
                    6          7          8          9         10
     6  C    0.000000
     7  F    2.338803   0.000000
     8  H    3.157531   2.523886   0.000000
     9  H    3.600000   4.334743   2.300000   0.000000
    10  H    3.157531   5.000000   3.983717   2.300000   0.000000
    11  H    1.997498   4.334743   4.600000   3.983717   2.300000
    12  H    1.000000   2.523886   3.983717   4.600000   3.983717
    13  O    4.977849   2.800000   4.786382   6.943301   7.799997
    14  C    6.152324   3.999999   5.899436   8.100821   8.999995
    15  H    6.700697   4.582575   6.430896   8.629970   9.539387
    16  H    6.700697   4.582575   6.430896   8.629970   9.539387
    17  H    3.521009   2.300000   3.591394   5.211076   5.855246
    18  Br   4.056731   3.160748   4.136902   5.536448   6.117303
                   11         12         13         14         15
    11  H    0.000000
    12  H    2.300000   0.000000
    13  O    6.940497   4.782313   0.000000
    14  C    8.096700   5.893776   1.200000   0.000000
    15  H    8.625744   6.425224   1.907878   1.000000   0.000000
    16  H    8.625744   6.425224   1.907878   1.000000   1.732051
    17  H    5.211076   3.591394   3.300517   4.253807   4.332700
    18  Br   5.536448   4.136902   4.058193   4.903618   4.831563
                   16         17         18
    16  H    0.000000
    17  H    5.159329   0.000000
    18  Br   5.853266   0.900000   0.000000
 Stoichiometry    C7H8BrFO
 Framework group  C1[X(C7H8BrFO)]
 Deg. of freedom    48
 Full point group                 C1      NOp   1
 Largest Abelian subgroup         C1      NOp   1
 Largest concise Abelian subgroup C1      NOp   1
                         Standard orientation:                         
 ---------------------------------------------------------------------
 Center     Atomic      Atomic             Coordinates (Angstroms)
 Number     Number       Type             X           Y           Z
 ---------------------------------------------------------------------
      1          6           0       -1.165607   -0.842885   -0.001289
      2          6           0       -1.796555   -0.681544   -1.126399
      3          6           0       -3.056661   -0.361963   -1.124958
      4          6           0       -3.685818   -0.203722    0.001595
      5          6           0       -3.054870   -0.365062    1.126706
      6          6           0       -1.794765   -0.684643    1.125264
      7          9           0        0.191429   -1.187049   -0.002841
      8          1           0       -1.312588   -0.803269   -1.992978
      9          1           0       -3.542005   -0.237855   -1.990427
     10          1           0       -4.655130    0.042110    0.002704
     11          1           0       -3.538838   -0.243338    1.993284
     12          1           0       -1.309420   -0.808751    1.990734
     13          8           0        2.905502   -1.875384   -0.001060
     14          6           0        4.068674   -2.170386    0.001100
     15          1           0        4.766228   -1.453854    0.002307
     16          1           0        4.340433   -3.132751    0.000335
     17          1           0        1.135389    0.910315   -0.000706
     18         35           0        1.201791    1.807861    0.000477
 ---------------------------------------------------------------------
 Rotational constants (GHZ):           0.9947613           0.4592019           0.3473559
 Standard basis: 6-311++G(d,p) (5D, 7F)
 There are   314 symmetry adapted cartesian basis functions of A   symmetry.
 There are   302 symmetry adapted basis functions of A   symmetry.
   302 basis functions,   490 primitive gaussians,   314 cartesian basis functions
    51 alpha electrons       51 beta electrons
       nuclear repulsion energy       716.1909826734 Hartrees.
 NAtoms=   18 NActive=   18 NUniq=   18 SFac= 1.00D+00 NAtFMM=   60 NAOKFM=F Big=F
 Integral buffers will be    131072 words long.
 Raffenetti 2 integral format.
 Two-electron integral symmetry is turned on.
 Force inversion solution in PCM.
 ------------------------------------------------------------------------------
 Polarizable Continuum Model (PCM)
 =================================
 Model                : PCM.
 Atomic radii         : UFF (Universal Force Field).
 Polarization charges : Total charges.
 Charge compensation  : None.
 Solution method      : Matrix inversion.
 Cavity type          : Scaled VdW (van der Waals Surface) (Alpha=1.100).
 Cavity algorithm     : GePol (No added spheres)
                        Default sphere list used, NSphG=   18.
                        Lebedev-Laikov grids with approx.  5.0 points / Ang**2.
                        Smoothing algorithm: York/Karplus (Gamma=1.0000).
                        Polarization charges: spherical gaussians, with
                                              point-specific exponents (IZeta= 3).
                        Self-potential: point-specific (ISelfS= 7).
                        Self-field    : sphere-specific E.n sum rule (ISelfD= 2).
 1st derivatives      : Analytical E(r).r(x)/FMM algorithm (CHGder, D1EAlg=3).
                        Cavity 1st derivative terms included.
 2nd derivatives      : Analytical E(r).r(xy)/FMM algorithm (CHGder, D2EAlg=3).
                        Cavity 2nd derivative terms included.
 Solvent              : DiChloroEthane, Eps=  10.125000 Eps(inf)=   2.087447
 ------------------------------------------------------------------------------
 Spheres list:
 ISph  on   Nord     Re0    Alpha      Xe            Ye            Ze
    1   C      1    1.9255  1.100     -1.165607     -0.842885     -0.001289
    2   C      2    1.9255  1.100     -1.796555     -0.681544     -1.126399
    3   C      3    1.9255  1.100     -3.056661     -0.361963     -1.124958
    4   C      4    1.9255  1.100     -3.685818     -0.203722      0.001595
    5   C      5    1.9255  1.100     -3.054870     -0.365062      1.126706
    6   C      6    1.9255  1.100     -1.794765     -0.684643      1.125264
    7   F      7    1.6820  1.100      0.191429     -1.187049     -0.002841
    8   H      8    1.4430  1.100     -1.312588     -0.803269     -1.992978
    9   H      9    1.4430  1.100     -3.542005     -0.237855     -1.990427
   10   H     10    1.4430  1.100     -4.655130      0.042110      0.002704
   11   H     11    1.4430  1.100     -3.538838     -0.243338      1.993284
   12   H     12    1.4430  1.100     -1.309420     -0.808751      1.990734
   13   O     13    1.7500  1.100      2.905502     -1.875384     -0.001060
   14   C     14    1.9255  1.100      4.068674     -2.170386      0.001100
   15   H     15    1.4430  1.100      4.766228     -1.453854      0.002307
   16   H     16    1.4430  1.100      4.340433     -3.132751      0.000335
   17   H     17    1.4430  1.100      1.135389      0.910315     -0.000706
   18  Br     18    2.0945  1.100      1.201791      1.807861      0.000477
 ------------------------------------------------------------------------------
 One-electron integrals computed using PRISM.
 NBasis=   302 RedAO= T EigKep=  4.16D-06  NBF=   302
 NBsUse=   301 1.00D-06 EigRej=  5.70D-07 NBFU=   301
 ExpMin= 3.50D-02 ExpMax= 4.40D+05 ExpMxC= 1.51D+04 IAcc=3 IRadAn=         5 AccDes= 0.00D+00
 Harris functional with IExCor= 1009 and IRadAn=       5 diagonalized for initial guess.
 HarFok:  IExCor= 1009 AccDes= 0.00D+00 IRadAn=         5 IDoV= 1 UseB2=F ITyADJ=14
 ICtDFT=  3500011 ScaDFX=  1.000000  1.000000  1.000000  1.000000
 FoFCou: FMM=F IPFlag=           0 FMFlag=      100000 FMFlg1=           0
         NFxFlg=           0 DoJE=T BraDBF=F KetDBF=T FulRan=T
         wScrn=  0.000000 ICntrl=       500 IOpCl=  0 I1Cent=   200000004 NGrid=           0
         NMat0=    1 NMatS0=      1 NMatT0=    0 NMatD0=    1 NMtDS0=    0 NMtDT0=    0
 Petite list used in FoFCou.
 Requested convergence on RMS density matrix=1.00D-08 within 128 cycles.
 Requested convergence on MAX density matrix=1.00D-06.
 Requested convergence on             energy=1.00D-06.
 No special actions if energy rises.
 Inv3:  Mode=1 IEnd=    10932843.
 Iteration    1 A*A^-1 deviation from unit magnitude is 4.22D-15 for   1905.
 Iteration    1 A*A^-1 deviation from orthogonality  is 2.89D-15 for   1905   1576.
 Iteration    1 A^-1*A deviation from unit magnitude is 3.44D-15 for   1907.
 Iteration    1 A^-1*A deviation from orthogonality  is 2.62D-15 for   1907   1718.
 Error on total polarization charges =  0.01263
 SCF Done:  E(RM062X) =  -3020.24523319     A.U. after   14 cycles
            NFock= 14  Conv=0.32D-08     -V/T= 2.0000
 DoSCS=F DFT=T ScalE2(SS,OS)=  1.000000  1.000000
 Range of M.O.s used for correlation:     1   301
 NBasis=   302 NAE=    51 NBE=    51 NFC=     0 NFV=     0
 NROrb=    301 NOA=    51 NOB=    51 NVA=   250 NVB=   250

 **** Warning!!: The largest alpha MO coefficient is  0.14256614D+03

 Symmetrizing basis deriv contribution to polar:
 IMax=3 JMax=2 DiffMx= 0.00D+00
 G2DrvN: will do    19 centers at a time, making    1 passes.
 Calling FoFCou, ICntrl=  3107 FMM=F I1Cent=   0 AccDes= 0.00D+00.
 NEqPCM:  Using equilibrium solvation (IEInf=0, Eps=  10.1250, EpsInf=   2.0874)
 G2PCM: DoFxE=T DoFxN=T DoGrad=T DoDP/DQ/DG/TGxP=FFFF NFrqRd=   0 IEInf=0 SqF1=F DoCFld=F IF1Alg=4.
 End of G2Drv F.D. properties file   721 does not exist.
 End of G2Drv F.D. properties file   722 does not exist.
 End of G2Drv F.D. properties file   788 does not exist.
          IDoAtm=111111111111111111
 NEqPCM:  Using equilibrium solvation (IEInf=0, Eps=  10.1250, EpsInf=   2.0874)
          Differentiating once with respect to electric field.
                with respect to dipole field.
          Differentiating once with respect to nuclear coordinates.
 CalDSu exits because no D1Ps are significant.
          There are    57 degrees of freedom in the 1st order CPHF.  IDoFFX=6 NUNeed=     3.
     54 vectors produced by pass  0 Test12= 2.24D-14 1.75D-09 XBig12= 5.85D+01 3.66D+00.
 AX will form    54 AO Fock derivatives at one time.
     54 vectors produced by pass  1 Test12= 2.24D-14 1.75D-09 XBig12= 7.28D+00 4.11D-01.
     54 vectors produced by pass  2 Test12= 2.24D-14 1.75D-09 XBig12= 9.77D-02 7.36D-02.
     54 vectors produced by pass  3 Test12= 2.24D-14 1.75D-09 XBig12= 8.50D-04 6.76D-03.
     54 vectors produced by pass  4 Test12= 2.24D-14 1.75D-09 XBig12= 3.72D-06 3.03D-04.
     53 vectors produced by pass  5 Test12= 2.24D-14 1.75D-09 XBig12= 1.88D-08 2.41D-05.
     41 vectors produced by pass  6 Test12= 2.24D-14 1.75D-09 XBig12= 6.11D-11 1.25D-06.
      8 vectors produced by pass  7 Test12= 2.24D-14 1.75D-09 XBig12= 2.24D-13 8.60D-08.
      2 vectors produced by pass  8 Test12= 2.24D-14 1.75D-09 XBig12= 7.29D-16 4.00D-09.
 InvSVY:  IOpt=1 It=  1 EMax= 5.33D-15
 Solved reduced A of dimension   374 with    57 vectors.
 Isotropic polarizability for W=    0.000000      104.46 Bohr**3.
 End of Minotr F.D. properties file   721 does not exist.
 End of Minotr F.D. properties file   722 does not exist.
 End of Minotr F.D. properties file   788 does not exist.

 **********************************************************************

            Population analysis using the SCF Density.

 **********************************************************************

 Orbital symmetries:
       Occupied  (A) (A) (A) (A) (A) (A) (A) (A) (A) (A) (A) (A)
                 (A) (A) (A) (A) (A) (A) (A) (A) (A) (A) (A) (A)
                 (A) (A) (A) (A) (A) (A) (A) (A) (A) (A) (A) (A)
                 (A) (A) (A) (A) (A) (A) (A) (A) (A) (A) (A) (A)
                 (A) (A) (A)
       Virtual   (A) (A) (A) (A) (A) (A) (A) (A) (A) (A) (A) (A)
                 (A) (A) (A) (A) (A) (A) (A) (A) (A) (A) (A) (A)
                 (A) (A) (A) (A) (A) (A) (A) (A) (A) (A) (A) (A)
                 (A) (A) (A) (A) (A) (A) (A) (A) (A) (A) (A) (A)
                 (A) (A) (A) (A) (A) (A) (A) (A) (A) (A) (A) (A)
                 (A) (A) (A) (A) (A) (A) (A) (A) (A) (A) (A) (A)
                 (A) (A) (A) (A) (A) (A) (A) (A) (A) (A) (A) (A)
                 (A) (A) (A) (A) (A) (A) (A) (A) (A) (A) (A) (A)
                 (A) (A) (A) (A) (A) (A) (A) (A) (A) (A) (A) (A)
                 (A) (A) (A) (A) (A) (A) (A) (A) (A) (A) (A) (A)
                 (A) (A) (A) (A) (A) (A) (A) (A) (A) (A) (A) (A)
                 (A) (A) (A) (A) (A) (A) (A) (A) (A) (A) (A) (A)
                 (A) (A) (A) (A) (A) (A) (A) (A) (A) (A) (A) (A)
                 (A) (A) (A) (A) (A) (A) (A) (A) (A) (A) (A) (A)
                 (A) (A) (A) (A) (A) (A) (A) (A) (A) (A) (A) (A)
                 (A) (A) (A) (A) (A) (A) (A) (A) (A) (A) (A) (A)
                 (A) (A) (A) (A) (A) (A) (A) (A) (A) (A) (A) (A)
                 (A) (A) (A) (A) (A) (A) (A) (A) (A) (A) (A) (A)
                 (A) (A) (A) (A) (A) (A) (A) (A) (A) (A) (A) (A)
                 (A) (A) (A) (A) (A) (A) (A) (A) (A) (A) (A) (A)
                 (A) (A) (A) (A) (A) (A) (A) (A) (A) (A)
 The electronic state is 1-A.
 Alpha  occ. eigenvalues -- -485.32747 -63.33094 -57.15643 -57.15461 -57.15461
 Alpha  occ. eigenvalues --  -25.24690 -19.63762 -10.61478 -10.61090 -10.52266
 Alpha  occ. eigenvalues --  -10.52263 -10.52057 -10.52045 -10.51330  -9.03029
 Alpha  occ. eigenvalues --   -6.86633  -6.84450  -6.84449  -2.90337  -2.88533
 Alpha  occ. eigenvalues --   -2.88533  -2.87298  -2.87298  -1.35241  -1.18967
 Alpha  occ. eigenvalues --   -1.03023  -0.99411  -0.89214  -0.88280  -0.74889
 Alpha  occ. eigenvalues --   -0.73639  -0.72153  -0.66172  -0.60396  -0.58835
 Alpha  occ. eigenvalues --   -0.58470  -0.57002  -0.54081  -0.53791  -0.53332
 Alpha  occ. eigenvalues --   -0.52412  -0.49616  -0.47554  -0.47368  -0.44342
 Alpha  occ. eigenvalues --   -0.41923  -0.37743  -0.37699  -0.34896  -0.33769
 Alpha  occ. eigenvalues --   -0.32626
 Alpha virt. eigenvalues --   -0.00422   0.00002   0.00951   0.01570   0.02406
 Alpha virt. eigenvalues --    0.02586   0.02625   0.03406   0.03686   0.04124
 Alpha virt. eigenvalues --    0.04561   0.05854   0.06446   0.06486   0.07260
 Alpha virt. eigenvalues --    0.07942   0.08073   0.09638   0.10385   0.11152
 Alpha virt. eigenvalues --    0.11948   0.12161   0.12973   0.13602   0.13637
 Alpha virt. eigenvalues --    0.13923   0.14341   0.14584   0.15021   0.15072
 Alpha virt. eigenvalues --    0.15720   0.16242   0.16938   0.17598   0.18413
 Alpha virt. eigenvalues --    0.18592   0.18901   0.20265   0.21102   0.21947
 Alpha virt. eigenvalues --    0.22507   0.22566   0.22948   0.23940   0.26432
 Alpha virt. eigenvalues --    0.26639   0.27218   0.29966   0.31566   0.32259
 Alpha virt. eigenvalues --    0.32716   0.33417   0.34815   0.35731   0.36761
 Alpha virt. eigenvalues --    0.36934   0.38529   0.40135   0.40957   0.41924
 Alpha virt. eigenvalues --    0.42509   0.43105   0.43855   0.44912   0.45499
 Alpha virt. eigenvalues --    0.46446   0.47716   0.51835   0.54069   0.54559
 Alpha virt. eigenvalues --    0.55643   0.57158   0.57689   0.58996   0.59127
 Alpha virt. eigenvalues --    0.59844   0.60477   0.61396   0.63245   0.63259
 Alpha virt. eigenvalues --    0.64054   0.64583   0.65411   0.66043   0.68321
 Alpha virt. eigenvalues --    0.69682   0.70098   0.70949   0.71795   0.74678
 Alpha virt. eigenvalues --    0.75194   0.76486   0.77785   0.81635   0.81668
 Alpha virt. eigenvalues --    0.85077   0.85631   0.87885   0.89219   0.90097
 Alpha virt. eigenvalues --    0.94365   0.94480   0.98023   1.00196   1.01017
 Alpha virt. eigenvalues --    1.02068   1.02281   1.04840   1.06337   1.08084
 Alpha virt. eigenvalues --    1.08340   1.09930   1.11648   1.16228   1.16246
 Alpha virt. eigenvalues --    1.16521   1.19443   1.23710   1.24103   1.27785
 Alpha virt. eigenvalues --    1.29273   1.34452   1.35352   1.41363   1.51598
 Alpha virt. eigenvalues --    1.52402   1.52450   1.53987   1.57193   1.59825
 Alpha virt. eigenvalues --    1.60633   1.63096   1.64887   1.67482   1.68211
 Alpha virt. eigenvalues --    1.68244   1.68984   1.71264   1.72822   1.74217
 Alpha virt. eigenvalues --    1.76614   1.76766   1.80785   1.82248   1.84814
 Alpha virt. eigenvalues --    1.85708   1.85823   1.90393   1.94360   1.96827
 Alpha virt. eigenvalues --    1.97408   1.99172   2.01728   2.04343   2.04495
 Alpha virt. eigenvalues --    2.05362   2.05810   2.06177   2.07201   2.12427
 Alpha virt. eigenvalues --    2.15835   2.17349   2.17508   2.18964   2.20172
 Alpha virt. eigenvalues --    2.21971   2.24111   2.36303   2.40974   2.46565
 Alpha virt. eigenvalues --    2.48609   2.50647   2.51130   2.57962   2.63569
 Alpha virt. eigenvalues --    2.67125   2.71017   2.71750   2.75279   2.76748
 Alpha virt. eigenvalues --    2.76899   2.78707   2.79421   2.81212   2.86549
 Alpha virt. eigenvalues --    2.86650   2.88021   2.88805   2.90592   2.96557
 Alpha virt. eigenvalues --    2.98122   2.98746   2.98748   3.03704   3.08160
 Alpha virt. eigenvalues --    3.12012   3.24281   3.27388   3.34648   3.39852
 Alpha virt. eigenvalues --    3.42081   3.55428   3.59930   3.61796   3.64806
 Alpha virt. eigenvalues --    3.75303   3.76033   3.87368   3.89236   3.98785
 Alpha virt. eigenvalues --    4.00548   4.05294   4.08855   4.14274   4.18226
 Alpha virt. eigenvalues --    4.19492   4.25690   4.25982   4.26472   4.28080
 Alpha virt. eigenvalues --    4.28904   4.33006   4.37178   4.90494   4.95784
 Alpha virt. eigenvalues --    4.95921   5.11384   5.23947   5.81840   6.53876
 Alpha virt. eigenvalues --    6.61475   6.88817   6.98965   7.62837   7.66177
 Alpha virt. eigenvalues --    7.83155  23.73117  24.17451  24.27072  24.31819
 Alpha virt. eigenvalues --   24.54470  24.57566  24.73024  48.51229  50.06894
 Alpha virt. eigenvalues --   66.96970 290.78446 290.81972 291.025291021.13574
          Condensed to atoms (all electrons):
               1          2          3          4          5          6
     1  C   10.174585  -0.889714  -1.103473  -0.068633  -1.101670  -0.882505
     2  C   -0.889714  12.084523   0.905967  -0.652501   0.060791  -5.822119
     3  C   -1.103473   0.905967   5.732662   0.480081  -0.242725   0.055654
     4  C   -0.068633  -0.652501   0.480081   6.422991   0.478716  -0.645297
     5  C   -1.101670   0.060791  -0.242725   0.478716   5.732400   0.900712
     6  C   -0.882505  -5.822119   0.055654  -0.645297   0.900712  12.080989
     7  F    0.525070  -0.267634  -0.052141   0.039208  -0.052322  -0.267695
     8  H   -0.184422   0.647985  -0.022293  -0.016570   0.019244  -0.106925
     9  H    0.022361  -0.071002   0.425487  -0.109034  -0.009767   0.075998
    10  H    0.034357  -0.021963  -0.064871   0.500819  -0.064991  -0.021704
    11  H    0.022457   0.076199  -0.009773  -0.109172   0.425653  -0.071323
    12  H   -0.183979  -0.106262   0.019156  -0.016534  -0.022522   0.647159
    13  O    0.040846  -0.013799  -0.001242  -0.000458  -0.001224  -0.013801
    14  C    0.003355  -0.002515  -0.000501   0.000658  -0.000518  -0.002668
    15  H    0.000289  -0.000149  -0.000054  -0.000078  -0.000053  -0.000146
    16  H   -0.001572   0.000536   0.000165   0.000002   0.000164   0.000529
    17  H   -0.151728   0.031228   0.031053  -0.004960   0.031393   0.030906
    18  Br   0.245922  -0.055549  -0.051801   0.021795  -0.051997  -0.054844
               7          8          9         10         11         12
     1  C    0.525070  -0.184422   0.022361   0.034357   0.022457  -0.183979
     2  C   -0.267634   0.647985  -0.071002  -0.021963   0.076199  -0.106262
     3  C   -0.052141  -0.022293   0.425487  -0.064871  -0.009773   0.019156
     4  C    0.039208  -0.016570  -0.109034   0.500819  -0.109172  -0.016534
     5  C   -0.052322   0.019244  -0.009767  -0.064991   0.425653  -0.022522
     6  C   -0.267695  -0.106925   0.075998  -0.021704  -0.071323   0.647159
     7  F    9.325197  -0.028710  -0.001381   0.001547  -0.001376  -0.028666
     8  H   -0.028710   0.490025  -0.010440  -0.000262   0.002965   0.000411
     9  H   -0.001381  -0.010440   0.477367  -0.013182   0.000623   0.002962
    10  H    0.001547  -0.000262  -0.013182   0.483752  -0.013191  -0.000255
    11  H   -0.001376   0.002965   0.000623  -0.013191   0.477383  -0.010453
    12  H   -0.028666   0.000411   0.002962  -0.000255  -0.010453   0.490037
    13  O    0.007893   0.000404   0.000048   0.000004   0.000048   0.000406
    14  C    0.003388  -0.000359  -0.000037   0.000013  -0.000037  -0.000357
    15  H   -0.000782  -0.000063   0.000007  -0.000002   0.000007  -0.000064
    16  H   -0.000317   0.000041  -0.000001  -0.000001  -0.000001   0.000042
    17  H    0.028842   0.007611   0.001735  -0.001430   0.001744   0.007548
    18  Br  -0.029602  -0.007263  -0.002774   0.002034  -0.002782  -0.007208
              13         14         15         16         17         18
     1  C    0.040846   0.003355   0.000289  -0.001572  -0.151728   0.245922
     2  C   -0.013799  -0.002515  -0.000149   0.000536   0.031228  -0.055549
     3  C   -0.001242  -0.000501  -0.000054   0.000165   0.031053  -0.051801
     4  C   -0.000458   0.000658  -0.000078   0.000002  -0.004960   0.021795
     5  C   -0.001224  -0.000518  -0.000053   0.000164   0.031393  -0.051997
     6  C   -0.013801  -0.002668  -0.000146   0.000529   0.030906  -0.054844
     7  F    0.007893   0.003388  -0.000782  -0.000317   0.028842  -0.029602
     8  H    0.000404  -0.000359  -0.000063   0.000041   0.007611  -0.007263
     9  H    0.000048  -0.000037   0.000007  -0.000001   0.001735  -0.002774
    10  H    0.000004   0.000013  -0.000002  -0.000001  -0.001430   0.002034
    11  H    0.000048  -0.000037   0.000007  -0.000001   0.001744  -0.002782
    12  H    0.000406  -0.000357  -0.000064   0.000042   0.007548  -0.007208
    13  O    8.201895   0.278290  -0.085679  -0.091030   0.028625  -0.024001
    14  C    0.278290   4.803704   0.408901   0.417082  -0.003655   0.000648
    15  H   -0.085679   0.408901   0.681179  -0.128565   0.003521  -0.000206
    16  H   -0.091030   0.417082  -0.128565   0.680046  -0.000490   0.000155
    17  H    0.028625  -0.003655   0.003521  -0.000490   1.157331  -0.014569
    18  Br  -0.024001   0.000648  -0.000206   0.000155  -0.014569  34.845788
 Mulliken charges:
               1
     1  C   -0.501547
     2  C    0.095980
     3  C   -0.101351
     4  C   -0.321031
     5  C   -0.101282
     6  C    0.097082
     7  F   -0.200517
     8  H    0.208619
     9  H    0.211030
    10  H    0.179325
    11  H    0.211028
    12  H    0.208580
    13  O   -0.327224
    14  C    0.094608
    15  H    0.121937
    16  H    0.123217
    17  H   -0.184705
    18  Br   0.186254
 Sum of Mulliken charges =  -0.00000
 Mulliken charges with hydrogens summed into heavy atoms:
               1
     1  C   -0.501547
     2  C    0.304599
     3  C    0.109679
     4  C   -0.141707
     5  C    0.109745
     6  C    0.305662
     7  F   -0.200517
    13  O   -0.327224
    14  C    0.339762
    18  Br   0.001549
 APT charges:
               1
     1  C    0.754613
     2  C   -0.174909
     3  C    0.004520
     4  C   -0.088580
     5  C    0.004550
     6  C   -0.174918
     7  F   -0.700112
     8  H    0.091513
     9  H    0.063162
    10  H    0.060272
    11  H    0.063155
    12  H    0.091525
    13  O   -0.703906
    14  C    0.691577
    15  H    0.002455
    16  H    0.000682
    17  H    0.173571
    18  Br  -0.159171
 Sum of APT charges =  -0.00000
 APT charges with hydrogens summed into heavy atoms:
               1
     1  C    0.754613
     2  C   -0.083396
     3  C    0.067682
     4  C   -0.028308
     5  C    0.067705
     6  C   -0.083393
     7  F   -0.700112
    13  O   -0.703906
    14  C    0.694715
    18  Br   0.014400
 Electronic spatial extent (au):  <R**2>=           3013.5301
 Charge=             -0.0000 electrons
 Dipole moment (field-independent basis, Debye):
    X=              0.3809    Y=             -1.2479    Z=              0.0063  Tot=              1.3048
 Quadrupole moment (field-independent basis, Debye-Ang):
   XX=            -42.1275   YY=            -71.3444   ZZ=            -64.5748
   XY=             -9.3802   XZ=              0.0157   YZ=             -0.0218
 Traceless Quadrupole moment (field-independent basis, Debye-Ang):
   XX=             17.2214   YY=            -11.9955   ZZ=             -5.2259
   XY=             -9.3802   XZ=              0.0157   YZ=             -0.0218
 Octapole moment (field-independent basis, Debye-Ang**2):
  XXX=            127.2226  YYY=             34.5844  ZZZ=             -0.0071  XYY=             48.4939
  XXY=            -34.4158  XXZ=              0.0573  XZZ=              6.2552  YZZ=              8.8643
  YYZ=              0.0376  XYZ=             -0.0082
 Hexadecapole moment (field-independent basis, Debye-Ang**3):
 XXXX=          -1892.3685 YYYY=           -797.1929 ZZZZ=           -260.8354 XXXY=           -240.9077
 XXXZ=              0.1639 YYYX=            -41.4142 YYYZ=              0.0348 ZZZX=             -0.0022
 ZZZY=             -0.0075 XXYY=           -470.7974 XXZZ=           -439.8259 YYZZ=           -193.1309
 XXYZ=             -0.1504 YYXZ=              0.0629 ZZXY=             11.9102
 N-N= 7.161909826734D+02 E-N=-8.635236199518D+03  KE= 3.020223814829D+03
  Exact polarizability: 128.023  -9.484  77.385   0.009  -0.043 107.973
 Approx polarizability: 125.386 -10.692  78.365   0.010  -0.043 109.275
 D2PCM: PCM CHGder 2nd derivatives, FixD1E=F FixD2E=F DoIter=F DoCFld=F I1PDM=0
 Calling FoFJK, ICntrl=    100127 FMM=F ISym2X=0 I1Cent= 0 IOpClX= 0 NMat=1 NMatS=1 NMatT=0.
 ***** Axes restored to original set *****
 -------------------------------------------------------------------
 Center     Atomic                   Forces (Hartrees/Bohr)
 Number     Number              X              Y              Z
 -------------------------------------------------------------------
      1        6          -0.090631362   -0.000468026   -0.052321169
      2        6          -0.053277222   -0.000043210    0.015179880
      3        6           0.002560560    0.000225078    0.037464549
      4        6           0.039497202   -0.000100248    0.022802488
      5        6           0.033723417    0.000224901   -0.016510303
      6        6          -0.013492124   -0.000044386   -0.053734990
      7        9           0.025376661    0.000045860    0.014650936
      8        1          -0.065621988   -0.000004809    0.035898868
      9        1          -0.001642362   -0.000006189    0.073847095
     10        1           0.064303474    0.000008200    0.037125149
     11        1           0.063133019   -0.000005758   -0.038345681
     12        1          -0.001721202   -0.000004265   -0.074778943
     13        8           0.015298446    0.000142019    0.008829171
     14        6           0.061335168    0.000070192    0.035743775
     15        1          -0.039197565    0.071537068   -0.022796047
     16        1          -0.039185778   -0.071505569   -0.022788539
     17        1          -0.179020183   -1.169115882   -0.103386578
     18       35           0.178561841    1.169045024    0.103120341
 -------------------------------------------------------------------
 Cartesian Forces:  Max     1.169115882 RMS     0.231297097
 -----------------------------------------------------------------------------------------------
                       Internal Coordinate Forces (Hartree/Bohr or radian)
  Cent   Atom   N1       Length/X         N2         Alpha/Y        N3         Beta/Z          J
 -----------------------------------------------------------------------------------------------
      1  C 
      2  C        1   0.037801(     1)
      3  C        2   0.154182(     2)      1   0.164110(    18)
      4  C        3   0.222320(     3)      2   0.417204(    19)      1   0.000529(    34)     0
      5  C        4   0.184517(     4)      3   0.452193(    20)      2   0.000237(    35)     0
      6  C        5   0.078579(     5)      4   0.253252(    21)      3  -0.000126(    36)     0
      7  F        1  -0.026751(     6)      2   0.000007(    22)      3  -0.000114(    37)     0
      8  H        2   0.074780(     7)      3   0.003253(    23)      4  -0.000008(    38)     0
      9  H        3   0.073847(     8)      4   0.003104(    24)      5  -0.000010(    39)     0
     10  H        4   0.074251(     9)      5  -0.000001(    25)      6   0.000013(    40)     0
     11  H        5   0.073848(    10)      6  -0.003103(    26)      1  -0.000009(    41)     0
     12  H        6   0.074779(    11)      1  -0.003253(    27)      2  -0.000007(    42)     0
     13  O        7   0.002021(    12)      1   0.000010(    28)      3  -0.000003(    43)     0
     14  C       13   0.019684(    13)      1   0.000103(    29)      2  -0.000000(    44)     0
     15  H       14   0.084625(    14)      1   0.006615(    30)      2   0.000119(    45)     0
     16  H       14   0.084591(    15)      1   0.006622(    31)      2  -0.000118(    46)     0
     17  H        7   0.000022(    16)      1   0.002213(    32)      2  -0.000034(    47)     0
     18  Br      17   1.187091(    17)      7  -0.000109(    33)      1  -0.000014(    48)     0
 -----------------------------------------------------------------------------------------------
 Internal  Forces:  Max     1.187090730 RMS     0.205993560

 GradGradGradGradGradGradGradGradGradGradGradGradGradGradGradGradGradGrad
 Berny optimization.
 Search for a local minimum.
 Step number   1 out of a maximum of   27
 All quantities printed in internal units (Hartrees-Bohrs-Radians)
 Second derivative matrix not updated -- analytic derivatives used.
 The second derivative matrix:
                          d1        d2        d3        d4        d5
           d1           0.89106
           d2          -0.02938   1.00842
           d3          -0.36426   0.41409   1.58147
           d4          -0.15368   0.02413   0.40213   0.99777
           d5           0.05452  -0.18056  -0.37841  -0.01357   0.95817
           d6           0.04573   0.04718   0.02901  -0.01673  -0.04429
           d7           0.00096   0.00215  -0.00044   0.00255   0.00230
           d8          -0.00058   0.00413   0.00483  -0.00019  -0.00036
           d9          -0.00089  -0.00094   0.00425   0.00514   0.00085
           d10          0.00315   0.00221  -0.00077   0.00168   0.00156
           d11         -0.01061  -0.00735   0.00351   0.01017   0.01179
           d12          0.00063   0.00074   0.00044  -0.00019  -0.00051
           d13         -0.00004  -0.00006  -0.00005  -0.00001   0.00002
           d14          0.00005   0.00006   0.00004  -0.00001  -0.00004
           d15          0.00005   0.00006   0.00004  -0.00001  -0.00004
           d16         -0.00056  -0.00072  -0.00034   0.00021   0.00039
           d17         -0.00000  -0.00002   0.00005   0.00005  -0.00002
                          d6        d7        d8        d9        d10
           d6           0.30815
           d7          -0.00009   0.57552
           d8           0.00096   0.00038   0.57463
           d9           0.00036   0.00018   0.00044   0.57383
           d10          0.00096   0.00010   0.00022   0.00044   0.57465
           d11         -0.00009   0.00009   0.00010   0.00018   0.00038
           d12         -0.00121  -0.00001   0.00004   0.00002   0.00004
           d13          0.00031   0.00001  -0.00001  -0.00001  -0.00001
           d14         -0.00013  -0.00000   0.00000   0.00000   0.00000
           d15         -0.00013  -0.00000   0.00000   0.00000   0.00000
           d16          0.00224   0.00008  -0.00004  -0.00002  -0.00004
           d17         -0.00003   0.00004   0.00000   0.00000   0.00000
                          d11       d12       d13       d14       d15
           d11          0.57551
           d12         -0.00001   0.00344
           d13          0.00001   0.00027   0.95634
           d14         -0.00000   0.00020   0.03216   0.57462
           d15         -0.00000   0.00014   0.03205   0.00167   0.57452
           d16          0.00008  -0.00051  -0.00006  -0.00002  -0.00001
           d17          0.00004   0.00028  -0.00016   0.00004   0.00004
                          d16       d17
           d16          0.00768
           d17          0.00383   3.26405
 ITU=  0
     Eigenvalues ---    0.00338   0.00771   0.29848   0.57089   0.57290
     Eigenvalues ---    0.57341   0.57404   0.57443   0.57500   0.57569
     Eigenvalues ---    0.58302   0.76896   0.81441   0.96169   1.08885
     Eigenvalues ---    2.19291   3.26405
 RFO step:  Lambda=-4.80601348D-01 EMin= 3.37534500D-03
 Linear search not attempted -- first point.
 Maximum step size (   0.300) exceeded in Quadratic search.
    -- Step size scaled by   0.709
 Variable       Old X    -DE/DX   Delta X   Delta X   Delta X     New X
                                 (Linear)    (Quad)   (Total)
    d1        2.45664   0.03780   0.00000   0.04623   0.04623   2.50288
    d2        2.45664   0.15418   0.00000   0.06229   0.06229   2.51893
    d3        2.45664   0.22232   0.00000   0.06943   0.06943   2.52607
    d4        2.45664   0.18452   0.00000   0.07301   0.07301   2.52966
    d5        2.45664   0.07858   0.00000   0.06233   0.06233   2.51897
    d6        2.64562  -0.02675   0.00000  -0.02806  -0.02806   2.61756
    d7        1.88973   0.07478   0.00000   0.04971   0.04971   1.93944
    d8        1.88973   0.07385   0.00000   0.04910   0.04910   1.93882
    d9        1.88973   0.07425   0.00000   0.04929   0.04929   1.93902
   d10        1.88973   0.07385   0.00000   0.04917   0.04917   1.93890
   d11        1.88973   0.07478   0.00000   0.04943   0.04943   1.93916
   d12        5.29123   0.00202   0.00000   0.00258   0.00258   5.29382
   d13        2.26767   0.01968   0.00000   0.00722   0.00722   2.27490
   d14        1.88973   0.08463   0.00000   0.05654   0.05654   1.94627
   d15        1.88973   0.08459   0.00000   0.05653   0.05653   1.94625
   d16        4.34637   0.00002   0.00000  -0.00149  -0.00149   4.34488
   d17        1.70075   1.18709   0.00000   0.22480   0.22480   1.92555
         Item               Value     Threshold  Converged?
 Maximum Force            1.187091     0.000450     NO 
 RMS     Force            0.303612     0.000300     NO 
 Maximum Displacement     0.224796     0.001800     NO 
 RMS     Displacement     0.072761     0.001200     NO 
 Predicted change in Energy=-2.415959D-01
 GradGradGradGradGradGradGradGradGradGradGradGradGradGradGradGradGradGrad

 ---------------------------------------------------------------------------------------------------
                            Z-MATRIX (ANGSTROMS AND DEGREES)
   CD    Cent   Atom    N1       Length/X        N2       Alpha/Y        N3        Beta/Z          J
 ---------------------------------------------------------------------------------------------------
      1      1  C 
      2      2  C        1   1.324466(     1)
      3      3  C        2   1.332961(     2)      1  120.000(    18)
      4      4  C        3   1.336739(     3)      2  120.000(    19)      1    0.000(    34)      0
      5      5  C        4   1.338636(     4)      3  120.000(    20)      2    0.000(    35)      0
      6      6  C        5   1.332984(     5)      4  120.000(    21)      3    0.000(    36)      0
      7      7  F        1   1.385152(     6)      2  120.000(    22)      3  180.000(    37)      0
      8      8  H        2   1.026307(     7)      3  120.000(    23)      4  180.000(    38)      0
      9      9  H        3   1.025980(     8)      4  120.000(    24)      5  180.000(    39)      0
     10     10  H        4   1.026085(     9)      5  120.000(    25)      6  180.000(    40)      0
     11     11  H        5   1.026020(    10)      6  120.000(    26)      1  180.000(    41)      0
     12     12  H        6   1.026158(    11)      1  120.000(    27)      2  180.000(    42)      0
     13     13  O        7   2.801368(    12)      1  179.900(    28)      3  180.000(    43)      0
     14     14  C       13   1.203823(    13)      1  179.900(    29)      2  180.000(    44)      0
     15     15  H       14   1.029921(    14)      1  120.000(    30)      2   90.000(    45)      0
     16     16  H       14   1.029912(    15)      1  120.000(    31)      2  -90.000(    46)      0
     17     17  H        7   2.299211(    16)      1  100.000(    32)      2   90.000(    47)      0
     18     18  Br      17   1.018957(    17)      7  160.000(    33)      1    0.000(    48)      0
 ---------------------------------------------------------------------------------------------------
                         Z-Matrix orientation:                         
 ---------------------------------------------------------------------
 Center     Atomic      Atomic             Coordinates (Angstroms)
 Number     Number       Type             X           Y           Z
 ---------------------------------------------------------------------
      1          6           0        0.000000    0.000000    0.000000
      2          6           0        0.000000    0.000000    1.324466
      3          6           0        1.154378    0.000000    1.990946
      4          6           0        2.312028    0.000000    1.322576
      5          6           0        2.312028    0.000000   -0.016060
      6          6           0        1.157630    0.000000   -0.682552
      7          9           0       -1.199577   -0.000000   -0.692576
      8          1           0       -0.888808   -0.000000    1.837619
      9          1           0        1.154378   -0.000000    3.016926
     10          1           0        3.200644   -0.000000    1.835619
     11          1           0        3.200587   -0.000000   -0.529070
     12          1           0        1.148244   -0.000000   -1.708667
     13          8           0       -3.623184   -0.000000   -2.097492
     14          6           0       -4.663967   -0.000000   -2.702438
     15          1           0       -5.109535    0.891938   -2.960613
     16          1           0       -5.109531   -0.891930   -2.960610
     17          1           0       -1.545340    2.264280   -0.892203
     18         35           0       -1.392106    3.267757   -0.803733
 ---------------------------------------------------------------------
                    Distance matrix (angstroms):
                    1          2          3          4          5
     1  C    0.000000
     2  C    1.324466   0.000000
     3  C    2.301403   1.332961   0.000000
     4  C    2.663584   2.312028   1.336739   0.000000
     5  C    2.312084   2.672542   2.316943   1.338636   0.000000
     6  C    1.343869   2.316943   2.673500   2.313693   1.332984
     7  F    1.385152   2.346794   3.569649   4.048729   3.576177
     8  H    2.041280   1.026307   2.048930   3.242008   3.698847
     9  H    3.230237   2.048660   1.025980   2.052066   3.246407
    10  H    3.689664   3.241203   2.052153   1.026085   2.053863
    11  H    3.244021   3.698561   3.246144   2.053809   1.026020
    12  H    2.058642   3.243202   3.699618   3.246973   2.054097
    13  O    4.186518   4.983699   6.288117   6.850081   6.289602
    14  C    5.390340   6.161862   7.475359   8.053896   7.475368
    15  H    5.972280   6.727912   8.034307   8.615152   8.034023
    16  H    5.972274   6.727906   8.034301   8.615147   8.034018
    17  H    2.882892   3.525431   4.552800   4.991142   4.557837
    18  Br   3.641728   4.140703   4.997304   5.377735   5.001927
                    6          7          8          9         10
     6  C    0.000000
     7  F    2.357228   0.000000
     8  H    3.246408   2.549208   0.000000
     9  H    3.699479   4.393348   2.359104   0.000000
    10  H    3.242698   5.074811   4.089452   2.362772   0.000000
    11  H    2.048714   4.403200   4.724867   4.094027   2.364689
    12  H    1.026158   2.558261   4.089709   4.725597   4.095645
    13  O    4.985803   2.801368   4.791859   6.998740   7.876166
    14  C    6.162056   4.005190   5.904570   8.158692   9.079982
    15  H    6.727738   4.607311   6.452373   8.704201   9.636309
    16  H    6.727733   4.607305   6.452368   8.704196   9.636304
    17  H    3.532275   2.299211   3.606928   5.262768   5.923879
    18  Br   4.146574   3.275311   4.231818   5.635623   6.223967
                   11         12         13         14         15
    11  H    0.000000
    12  H    2.367185   0.000000
    13  O    7.001700   4.787244   0.000000
    14  C    8.159335   5.896556   1.203823   0.000000
    15  H    8.704371   6.443812   1.936432   1.029921   0.000000
    16  H    8.704366   6.443806   1.936424   1.029912   1.783868
    17  H    5.270926   3.612336   3.301079   4.257904   4.343400
    18  Br   5.643271   4.236805   4.162903   4.998839   4.910797
                   16         17         18
    16  H    0.000000
    17  H    5.190706   0.000000
    18  Br   5.981168   1.018957   0.000000
 Stoichiometry    C7H8BrFO
 Framework group  C1[X(C7H8BrFO)]
 Deg. of freedom    48
 Full point group                 C1      NOp   1
 Largest Abelian subgroup         C1      NOp   1
 Largest concise Abelian subgroup C1      NOp   1
                         Standard orientation:                         
 ---------------------------------------------------------------------
 Center     Atomic      Atomic             Coordinates (Angstroms)
 Number     Number       Type             X           Y           Z
 ---------------------------------------------------------------------
      1          6           0       -1.161254   -0.871935   -0.008411
      2          6           0       -1.799362   -0.697302   -1.155813
      3          6           0       -3.086635   -0.351311   -1.156588
      4          6           0       -3.733537   -0.180590    0.000669
      5          6           0       -3.088603   -0.357091    1.160347
      6          6           0       -1.801306   -0.703088    1.161122
      7          9           0        0.176422   -1.231473   -0.007605
      8          1           0       -1.302691   -0.828377   -2.044319
      9          1           0       -3.580937   -0.216035   -2.045408
     10          1           0       -4.724454    0.085746    0.000072
     11          1           0       -3.585135   -0.226054    2.048604
     12          1           0       -1.299083   -0.840481    2.045371
     13          8           0        2.881764   -1.958622   -0.001086
     14          6           0        4.044316   -2.271101    0.003122
     15          1           0        4.773140   -1.543404    0.006569
     16          1           0        4.310108   -3.266124    0.001878
     17          1           0        1.149716    0.851561   -0.001419
     18         35           0        1.239306    1.866569    0.001117
 ---------------------------------------------------------------------
 Rotational constants (GHZ):           0.9297821           0.4519851           0.3371244
 Standard basis: 6-311++G(d,p) (5D, 7F)
 There are   314 symmetry adapted cartesian basis functions of A   symmetry.
 There are   302 symmetry adapted basis functions of A   symmetry.
   302 basis functions,   490 primitive gaussians,   314 cartesian basis functions
    51 alpha electrons       51 beta electrons
       nuclear repulsion energy       700.7476093076 Hartrees.
 NAtoms=   18 NActive=   18 NUniq=   18 SFac= 1.00D+00 NAtFMM=   60 NAOKFM=F Big=F
 Integral buffers will be    131072 words long.
 Raffenetti 2 integral format.
 Two-electron integral symmetry is turned on.
 Force inversion solution in PCM.
 ------------------------------------------------------------------------------
 Polarizable Continuum Model (PCM)
 =================================
 Model                : PCM.
 Atomic radii         : UFF (Universal Force Field).
 Polarization charges : Total charges.
 Charge compensation  : None.
 Solution method      : Matrix inversion.
 Cavity type          : Scaled VdW (van der Waals Surface) (Alpha=1.100).
 Cavity algorithm     : GePol (No added spheres)
                        Default sphere list used, NSphG=   18.
                        Lebedev-Laikov grids with approx.  5.0 points / Ang**2.
                        Smoothing algorithm: York/Karplus (Gamma=1.0000).
                        Polarization charges: spherical gaussians, with
                                              point-specific exponents (IZeta= 3).
                        Self-potential: point-specific (ISelfS= 7).
                        Self-field    : sphere-specific E.n sum rule (ISelfD= 2).
 1st derivatives      : Analytical E(r).r(x)/FMM algorithm (CHGder, D1EAlg=3).
                        Cavity 1st derivative terms included.
 Solvent              : DiChloroEthane, Eps=  10.125000 Eps(inf)=   2.087447
 ------------------------------------------------------------------------------
 Spheres list:
 ISph  on   Nord     Re0    Alpha      Xe            Ye            Ze
    1   C      1    1.9255  1.100     -1.161254     -0.871935     -0.008411
    2   C      2    1.9255  1.100     -1.799362     -0.697302     -1.155813
    3   C      3    1.9255  1.100     -3.086635     -0.351311     -1.156588
    4   C      4    1.9255  1.100     -3.733537     -0.180590      0.000669
    5   C      5    1.9255  1.100     -3.088603     -0.357091      1.160347
    6   C      6    1.9255  1.100     -1.801306     -0.703088      1.161122
    7   F      7    1.6820  1.100      0.176422     -1.231473     -0.007605
    8   H      8    1.4430  1.100     -1.302691     -0.828377     -2.044319
    9   H      9    1.4430  1.100     -3.580937     -0.216035     -2.045408
   10   H     10    1.4430  1.100     -4.724454      0.085746      0.000072
   11   H     11    1.4430  1.100     -3.585135     -0.226054      2.048604
   12   H     12    1.4430  1.100     -1.299083     -0.840481      2.045371
   13   O     13    1.7500  1.100      2.881764     -1.958622     -0.001086
   14   C     14    1.9255  1.100      4.044316     -2.271101      0.003122
   15   H     15    1.4430  1.100      4.773140     -1.543404      0.006569
   16   H     16    1.4430  1.100      4.310108     -3.266124      0.001878
   17   H     17    1.4430  1.100      1.149716      0.851561     -0.001419
   18  Br     18    2.0945  1.100      1.239306      1.866569      0.001117
 ------------------------------------------------------------------------------
 One-electron integrals computed using PRISM.
 NBasis=   302 RedAO= T EigKep=  5.27D-06  NBF=   302
 NBsUse=   301 1.00D-06 EigRej=  7.23D-07 NBFU=   301
 Initial guess from the checkpoint file:  "/home/lywu/software/g16/scr/Gau-5932.chk"
 B after Tr=     0.000000   -0.000000   -0.000000
         Rot=    0.999989   -0.000210    0.000108    0.004630 Ang=  -0.53 deg.
 ExpMin= 3.50D-02 ExpMax= 4.40D+05 ExpMxC= 1.51D+04 IAcc=3 IRadAn=         5 AccDes= 0.00D+00
 Harris functional with IExCor= 1009 and IRadAn=       5 diagonalized for initial guess.
 HarFok:  IExCor= 1009 AccDes= 0.00D+00 IRadAn=         5 IDoV= 1 UseB2=F ITyADJ=14
 ICtDFT=  3500011 ScaDFX=  1.000000  1.000000  1.000000  1.000000
 FoFCou: FMM=F IPFlag=           0 FMFlag=      100000 FMFlg1=           0
         NFxFlg=           0 DoJE=T BraDBF=F KetDBF=T FulRan=T
         wScrn=  0.000000 ICntrl=       500 IOpCl=  0 I1Cent=   200000004 NGrid=           0
         NMat0=    1 NMatS0=      1 NMatT0=    0 NMatD0=    1 NMtDS0=    0 NMtDT0=    0
 Petite list used in FoFCou.
 Requested convergence on RMS density matrix=1.00D-08 within 128 cycles.
 Requested convergence on MAX density matrix=1.00D-06.
 Requested convergence on             energy=1.00D-06.
 No special actions if energy rises.
 Inv3:  Mode=1 IEnd=    11279163.
 Iteration    1 A*A^-1 deviation from unit magnitude is 4.22D-15 for   1919.
 Iteration    1 A*A^-1 deviation from orthogonality  is 2.27D-15 for   1938   1747.
 Iteration    1 A^-1*A deviation from unit magnitude is 4.44D-15 for   1919.
 Iteration    1 A^-1*A deviation from orthogonality  is 2.07D-15 for   1936   1600.
 Error on total polarization charges =  0.01323
 SCF Done:  E(RM062X) =  -3020.50145315     A.U. after   13 cycles
            NFock= 13  Conv=0.37D-08     -V/T= 2.0006
 DoSCS=F DFT=T ScalE2(SS,OS)=  1.000000  1.000000
 Range of M.O.s used for correlation:     1   301
 NBasis=   302 NAE=    51 NBE=    51 NFC=     0 NFV=     0
 NROrb=    301 NOA=    51 NOB=    51 NVA=   250 NVB=   250

 **** Warning!!: The largest alpha MO coefficient is  0.12783401D+03

 Symmetrizing basis deriv contribution to polar:
 IMax=3 JMax=2 DiffMx= 0.00D+00
 D1PCM: PCM CHGder 1st derivatives, ID1Alg=3 FixD1E=F DoIter=F DoCFld=F I1PDM=0.
 Calling FoFJK, ICntrl=      2127 FMM=F ISym2X=0 I1Cent= 0 IOpClX= 0 NMat=1 NMatS=1 NMatT=0.
 ***** Axes restored to original set *****
 -------------------------------------------------------------------
 Center     Atomic                   Forces (Hartrees/Bohr)
 Number     Number              X              Y              Z
 -------------------------------------------------------------------
      1        6          -0.041208551   -0.000409315   -0.044027809
      2        6          -0.032330573   -0.000025821    0.013546929
      3        6           0.008660498    0.000237519    0.014110993
      4        6           0.015823122   -0.000150597    0.009489879
      5        6           0.013853565    0.000234325   -0.002067072
      6        6          -0.018383789   -0.000011047   -0.022490971
      7        9           0.019991787    0.000392658    0.011802879
      8        1          -0.042066939    0.000004539    0.022304381
      9        1          -0.001292661   -0.000012075    0.046958267
     10        1           0.040879498    0.000011916    0.023549788
     11        1           0.040068455   -0.000012954   -0.024595017
     12        1          -0.001973199    0.000006362   -0.047417403
     13        8           0.006418944    0.000221197    0.003678793
     14        6           0.044762832    0.000085610    0.026150594
     15        1          -0.026406294    0.045119844   -0.015382688
     16        1          -0.026394209   -0.045104004   -0.015373364
     17        1          -0.095455819   -0.619077750   -0.055064205
     18       35           0.095053330    0.618489594    0.054826025
 -------------------------------------------------------------------
 Cartesian Forces:  Max     0.619077750 RMS     0.122992972
 -----------------------------------------------------------------------------------------------
                       Internal Coordinate Forces (Hartree/Bohr or radian)
  Cent   Atom   N1       Length/X         N2         Alpha/Y        N3         Beta/Z          J
 -----------------------------------------------------------------------------------------------
      1  C 
      2  C        1   0.032377(     1)
      3  C        2   0.082301(     2)      1   0.057280(    18)
      4  C        3   0.109929(     3)      2   0.183745(    19)      1   0.000615(    34)     0
      5  C        4   0.097583(     4)      3   0.209179(    20)      2   0.000422(    35)     0
      6  C        5   0.053607(     5)      4   0.125868(    21)      3  -0.000052(    36)     0
      7  F        1  -0.020882(     6)      2  -0.000655(    22)      3   0.001001(    37)     0
      8  H        2   0.047583(     7)      3   0.003331(    23)      4   0.000008(    38)     0
      9  H        3   0.046958(     8)      4   0.002506(    24)      5  -0.000020(    39)     0
     10  H        4   0.047178(     9)      5  -0.000087(    25)      6   0.000020(    40)     0
     11  H        5   0.046998(    10)      6  -0.002454(    26)      1  -0.000022(    41)     0
     12  H        6   0.047433(    11)      1  -0.002985(    27)      2   0.000011(    42)     0
     13  O        7   0.001865(    12)      1   0.000050(    28)      3  -0.000003(    43)     0
     14  C       13   0.009263(    13)      1   0.000100(    29)      2  -0.000000(    44)     0
     15  H       14   0.054355(    14)      1   0.007602(    30)      2   0.000120(    45)     0
     16  H       14   0.054334(    15)      1   0.007592(    31)      2  -0.000116(    46)     0
     17  H        7  -0.000498(    16)      1   0.001164(    32)      2   0.000109(    47)     0
     18  Br      17   0.628148(    17)      7  -0.001280(    33)      1   0.000030(    48)     0
 -----------------------------------------------------------------------------------------------
 Internal  Forces:  Max     0.628148041 RMS     0.106188953

 GradGradGradGradGradGradGradGradGradGradGradGradGradGradGradGradGradGrad
 Berny optimization.
 Search for a local minimum.
 Step number   2 out of a maximum of   27
 All quantities printed in internal units (Hartrees-Bohrs-Radians)
 Update second derivatives using D2CorN and points    1    2
 DE= -2.56D-01 DEPred=-2.42D-01 R= 1.06D+00
 TightC=F SS=  1.41D+00  RLast= 3.00D-01 DXNew= 5.0454D-01 9.0000D-01
 Trust test= 1.06D+00 RLast= 3.00D-01 DXMaxT set to 5.05D-01
 The second derivative matrix:
                          d1        d2        d3        d4        d5
           d1           0.89149
           d2          -0.03103   1.00322
           d3          -0.36699   0.40707   1.57229
           d4          -0.15560   0.01803   0.39391   0.99061
           d5           0.05461  -0.18344  -0.38284  -0.01695   0.95762
           d6           0.04550   0.04821   0.03071  -0.01551  -0.04430
           d7           0.00070  -0.00060  -0.00447  -0.00067   0.00141
           d8          -0.00083   0.00143   0.00086  -0.00336  -0.00123
           d9          -0.00115  -0.00365   0.00027   0.00196  -0.00003
           d10          0.00290  -0.00050  -0.00475  -0.00149   0.00069
           d11         -0.01087  -0.01008  -0.00049   0.00697   0.01091
           d12          0.00063   0.00062   0.00025  -0.00033  -0.00054
           d13         -0.00002  -0.00038  -0.00055  -0.00039  -0.00004
           d14         -0.00035  -0.00319  -0.00469  -0.00382  -0.00117
           d15         -0.00035  -0.00319  -0.00469  -0.00382  -0.00118
           d16         -0.00062  -0.00073  -0.00033   0.00020   0.00033
           d17         -0.04386  -0.06990  -0.08223  -0.08187  -0.06154
                          d6        d7        d8        d9        d10
           d6           0.30827
           d7           0.00011   0.57445
           d8           0.00115  -0.00066   0.57361
           d9           0.00054  -0.00088  -0.00059   0.57280
           d10          0.00115  -0.00095  -0.00081  -0.00059   0.57362
           d11          0.00011  -0.00097  -0.00094  -0.00087  -0.00066
           d12         -0.00121  -0.00005   0.00000  -0.00001   0.00000
           d13          0.00030  -0.00009  -0.00010  -0.00010  -0.00010
           d14          0.00015  -0.00132  -0.00129  -0.00129  -0.00129
           d15          0.00015  -0.00132  -0.00129  -0.00129  -0.00129
           d16          0.00228   0.00003  -0.00008  -0.00006  -0.00008
           d17          0.02674  -0.05066  -0.05003  -0.05023  -0.05011
                          d11       d12       d13       d14       d15
           d11          0.57445
           d12         -0.00005   0.00344
           d13         -0.00009   0.00027   0.95633
           d14         -0.00131   0.00015   0.03204   0.57301
           d15         -0.00131   0.00009   0.03193   0.00006   0.57291
           d16          0.00003  -0.00052  -0.00007  -0.00006  -0.00005
           d17         -0.05037  -0.00228  -0.00726  -0.05808  -0.05806
                          d16       d17
           d16          0.00768
           d17          0.00502   2.82741
 ITU=  1  0
 Linear search step of   0.600 exceeds DXMaxT=   0.505 but not scaled.
 Quartic linear search produced a step of  2.00000.
 Variable       Old X    -DE/DX   Delta X   Delta X   Delta X     New X
                                 (Linear)    (Quad)   (Total)
    d1        2.50288   0.03238   0.09247   0.00000   0.09247   2.59534
    d2        2.51893   0.08230   0.12457   0.00000   0.12457   2.64350
    d3        2.52607   0.10993   0.13885   0.00000   0.13885   2.66492
    d4        2.52966   0.09758   0.14602   0.00000   0.14602   2.67568
    d5        2.51897   0.05361   0.12466   0.00000   0.12466   2.64364
    d6        2.61756  -0.02088  -0.05612   0.00000  -0.05612   2.56144
    d7        1.93944   0.04758   0.09942   0.00000   0.09942   2.03886
    d8        1.93882   0.04696   0.09819   0.00000   0.09819   2.03701
    d9        1.93902   0.04718   0.09859   0.00000   0.09859   2.03761
   d10        1.93890   0.04700   0.09834   0.00000   0.09834   2.03724
   d11        1.93916   0.04743   0.09886   0.00000   0.09886   2.03802
   d12        5.29382   0.00187   0.00517   0.00000   0.00517   5.29899
   d13        2.27490   0.00926   0.01445   0.00000   0.01445   2.28934
   d14        1.94627   0.05435   0.11309   0.00000   0.11309   2.05935
   d15        1.94625   0.05433   0.11305   0.00000   0.11305   2.05930
   d16        4.34488  -0.00050  -0.00298   0.00000  -0.00298   4.34189
   d17        1.92555   0.62815   0.44959   0.00000   0.44959   2.37514
         Item               Value     Threshold  Converged?
 Maximum Force            0.628148     0.000450     NO 
 RMS     Force            0.161693     0.000300     NO 
 Maximum Displacement     0.449593     0.001800     NO 
 RMS     Displacement     0.145521     0.001200     NO 
 Predicted change in Energy=-5.591745D-02
 GradGradGradGradGradGradGradGradGradGradGradGradGradGradGradGradGradGrad

 ---------------------------------------------------------------------------------------------------
                            Z-MATRIX (ANGSTROMS AND DEGREES)
   CD    Cent   Atom    N1       Length/X        N2       Alpha/Y        N3        Beta/Z          J
 ---------------------------------------------------------------------------------------------------
      1      1  C 
      2      2  C        1   1.373397(     1)
      3      3  C        2   1.398882(     2)      1  120.000(    18)
      4      4  C        3   1.410217(     3)      2  120.000(    19)      1    0.000(    34)      0
      5      5  C        4   1.415909(     4)      3  120.000(    20)      2    0.000(    35)      0
      6      6  C        5   1.398952(     5)      4  120.000(    21)      3    0.000(    36)      0
      7      7  F        1   1.355455(     6)      2  120.000(    22)      3  180.000(    37)      0
      8      8  H        2   1.078920(     7)      3  120.000(    23)      4  180.000(    38)      0
      9      9  H        3   1.077940(     8)      4  120.000(    24)      5  180.000(    39)      0
     10     10  H        4   1.078256(     9)      5  120.000(    25)      6  180.000(    40)      0
     11     11  H        5   1.078060(    10)      6  120.000(    26)      1  180.000(    41)      0
     12     12  H        6   1.078475(    11)      1  120.000(    27)      2  180.000(    42)      0
     13     13  O        7   2.804104(    12)      1  179.900(    28)      3  180.000(    43)      0
     14     14  C       13   1.211469(    13)      1  179.900(    29)      2  180.000(    44)      0
     15     15  H       14   1.089764(    14)      1  120.000(    30)      2   90.000(    45)      0
     16     16  H       14   1.089736(    15)      1  120.000(    31)      2  -90.000(    46)      0
     17     17  H        7   2.297632(    16)      1  100.000(    32)      2   90.000(    47)      0
     18     18  Br      17   1.256871(    17)      7  160.000(    33)      1    0.000(    48)      0
 ---------------------------------------------------------------------------------------------------
                         Z-Matrix orientation:                         
 ---------------------------------------------------------------------
 Center     Atomic      Atomic             Coordinates (Angstroms)
 Number     Number       Type             X           Y           Z
 ---------------------------------------------------------------------
      1          6           0        0.000000    0.000000    0.000000
      2          6           0        0.000000    0.000000    1.373397
      3          6           0        1.211467    0.000000    2.072838
      4          6           0        2.432751    0.000000    1.367729
      5          6           0        2.432751    0.000000   -0.048179
      6          6           0        1.221223    0.000000   -0.747655
      7          9           0       -1.173859   -0.000000   -0.677728
      8          1           0       -0.934372   -0.000000    1.912857
      9          1           0        1.211467   -0.000000    3.150778
     10          1           0        3.366548   -0.000000    1.906857
     11          1           0        3.366378   -0.000000   -0.587209
     12          1           0        1.193449   -0.000000   -1.825773
     13          8           0       -3.599833   -0.000000   -2.084016
     14          6           0       -4.647221   -0.000000   -2.692813
     15          1           0       -5.118674    0.943763   -2.965995
     16          1           0       -5.118662   -0.943739   -2.965988
     17          1           0       -1.519385    2.262725   -0.877217
     18         35           0       -1.330372    3.500502   -0.768091
 ---------------------------------------------------------------------
                    Distance matrix (angstroms):
                    1          2          3          4          5
     1  C    0.000000
     2  C    1.373397   0.000000
     3  C    2.400898   1.398882   0.000000
     4  C    2.790871   2.432758   1.410217   0.000000
     5  C    2.433228   2.817651   2.447499   1.415909   0.000000
     6  C    1.431913   2.447499   2.820510   2.437755   1.398952
     7  F    1.355455   2.363273   3.640795   4.146267   3.661143
     8  H    2.128867   1.078920   2.151794   3.410965   3.896560
     9  H    3.375656   2.150985   1.077940   2.161203   3.424159
    10  H    3.869077   3.408552   2.161464   1.078256   2.166598
    11  H    3.417209   3.895700   3.423375   2.166436   1.078060
    12  H    2.181230   3.414529   3.898652   3.425540   2.166958
    13  O    4.159558   4.991243   6.358305   6.950296   6.366844
    14  C    5.371025   6.175009   7.552195   8.161741   7.557784
    15  H    5.990713   6.776565   8.145625   8.757618   8.150359
    16  H    5.990695   6.776549   8.145609   8.757602   8.150343
    17  H    2.863209   3.534646   4.613058   5.077312   4.628889
    18  Br   3.822744   4.313859   5.175455   5.565639   5.189690
                    6          7          8          9         10
     6  C    0.000000
     7  F    2.396103   0.000000
     8  H    3.424167   2.601631   0.000000
     9  H    3.898446   4.510791   2.477312   0.000000
    10  H    3.413042   5.224498   4.300924   2.488316   0.000000
    11  H    2.151147   4.541139   4.974614   4.314649   2.494067
    12  H    1.078475   2.630998   4.301741   4.976583   4.319131
    13  O    5.002844   2.804104   4.804131   7.109970   8.028545
    14  C    6.182417   4.015572   5.915864   8.274768   9.239993
    15  H    6.782774   4.657083   6.496327   8.853038   9.830279
    16  H    6.782757   4.657065   6.496311   8.853022   9.830263
    17  H    3.556353   2.297632   3.639599   5.366771   6.061629
    18  Br   4.331809   3.505164   4.426942   5.837122   6.439715
                   11         12         13         14         15
    11  H    0.000000
    12  H    2.501132   0.000000
    13  O    7.125204   4.800233   0.000000
    14  C    8.285610   5.904675   1.211469   0.000000
    15  H    8.862586   6.483340   1.993854   1.089764   0.000000
    16  H    8.862570   6.483323   1.993831   1.089736   1.887502
    17  H    5.392097   3.657752   3.302204   4.266107   4.365494
    18  Br   5.860520   4.443183   4.374429   5.192259   5.071383
                   16         17         18
    16  H    0.000000
    17  H    5.253491   0.000000
    18  Br   6.239645   1.256871   0.000000
 Stoichiometry    C7H8BrFO
 Framework group  C1[X(C7H8BrFO)]
 Deg. of freedom    48
 Full point group                 C1      NOp   1
 Largest Abelian subgroup         C1      NOp   1
 Largest concise Abelian subgroup C1      NOp   1
                         Standard orientation:                         
 ---------------------------------------------------------------------
 Center     Atomic      Atomic             Coordinates (Angstroms)
 Number     Number       Type             X           Y           Z
 ---------------------------------------------------------------------
      1          6           0       -1.158686   -0.927085   -0.022388
      2          6           0       -1.809520   -0.723258   -1.214483
      3          6           0       -3.148282   -0.317604   -1.220033
      4          6           0       -3.829611   -0.117956   -0.001573
      5          6           0       -3.158632   -0.328093    1.227422
      6          6           0       -1.819802   -0.733767    1.232971
      7          9           0        0.138516   -1.320146   -0.017011
      8          1           0       -1.288253   -0.876003   -2.146695
      9          1           0       -3.659102   -0.157626   -2.155674
     10          1           0       -4.861527    0.194721   -0.005850
     11          1           0       -3.679483   -0.175469    2.158890
     12          1           0       -1.285804   -0.900692    2.154975
     13          8           0        2.822078   -2.133309   -0.000993
     14          6           0        3.981458   -2.484628    0.007352
     15          1           0        4.776573   -1.739435    0.015398
     16          1           0        4.229256   -3.545815    0.005342
     17          1           0        1.176453    0.729638   -0.003374
     18         35           0        1.326488    1.977509    0.002355
 ---------------------------------------------------------------------
 Rotational constants (GHZ):           0.8188427           0.4372601           0.3174948
 Standard basis: 6-311++G(d,p) (5D, 7F)
 There are   314 symmetry adapted cartesian basis functions of A   symmetry.
[...]
     17          1           0        0.906978    0.729273   -0.002599
     18         35           0        0.900129    2.154584    0.001143
 ---------------------------------------------------------------------
 Rotational constants (GHZ):           0.7730135           0.3856312           0.2826655

 **********************************************************************

            Population analysis using the SCF Density.

 **********************************************************************

 Orbital symmetries:
       Occupied  (A) (A) (A) (A) (A) (A) (A) (A) (A) (A) (A) (A)
                 (A) (A) (A) (A) (A) (A) (A) (A) (A) (A) (A) (A)
                 (A) (A) (A) (A) (A) (A) (A) (A) (A) (A) (A) (A)
                 (A) (A) (A) (A) (A) (A) (A) (A) (A) (A) (A) (A)
                 (A) (A) (A)
       Virtual   (A) (A) (A) (A) (A) (A) (A) (A) (A) (A) (A) (A)
                 (A) (A) (A) (A) (A) (A) (A) (A) (A) (A) (A) (A)
                 (A) (A) (A) (A) (A) (A) (A) (A) (A) (A) (A) (A)
                 (A) (A) (A) (A) (A) (A) (A) (A) (A) (A) (A) (A)
                 (A) (A) (A) (A) (A) (A) (A) (A) (A) (A) (A) (A)
                 (A) (A) (A) (A) (A) (A) (A) (A) (A) (A) (A) (A)
                 (A) (A) (A) (A) (A) (A) (A) (A) (A) (A) (A) (A)
                 (A) (A) (A) (A) (A) (A) (A) (A) (A) (A) (A) (A)
                 (A) (A) (A) (A) (A) (A) (A) (A) (A) (A) (A) (A)
                 (A) (A) (A) (A) (A) (A) (A) (A) (A) (A) (A) (A)
                 (A) (A) (A) (A) (A) (A) (A) (A) (A) (A) (A) (A)
                 (A) (A) (A) (A) (A) (A) (A) (A) (A) (A) (A) (A)
                 (A) (A) (A) (A) (A) (A) (A) (A) (A) (A) (A) (A)
                 (A) (A) (A) (A) (A) (A) (A) (A) (A) (A) (A) (A)
                 (A) (A) (A) (A) (A) (A) (A) (A) (A) (A) (A) (A)
                 (A) (A) (A) (A) (A) (A) (A) (A) (A) (A) (A) (A)
                 (A) (A) (A) (A) (A) (A) (A) (A) (A) (A) (A) (A)
                 (A) (A) (A) (A) (A) (A) (A) (A) (A) (A) (A) (A)
                 (A) (A) (A) (A) (A) (A) (A) (A) (A) (A) (A) (A)
                 (A) (A) (A) (A) (A) (A) (A) (A) (A) (A) (A) (A)
                 (A) (A) (A) (A) (A) (A) (A) (A) (A) (A) (A)
 The electronic state is 1-A.
 Alpha  occ. eigenvalues -- -485.33998 -63.33223 -57.15948 -57.15722 -57.15722
 Alpha  occ. eigenvalues --  -25.27103 -19.64562 -10.63999 -10.63905 -10.56058
 Alpha  occ. eigenvalues --  -10.55978 -10.55819 -10.55729 -10.55233  -9.01936
 Alpha  occ. eigenvalues --   -6.84677  -6.83739  -6.83739  -2.87857  -2.87487
 Alpha  occ. eigenvalues --   -2.87487  -2.86674  -2.86674  -1.38897  -1.19272
 Alpha  occ. eigenvalues --   -0.98060  -0.87913  -0.86390  -0.85894  -0.72282
 Alpha  occ. eigenvalues --   -0.71897  -0.71408  -0.64112  -0.59083  -0.58648
 Alpha  occ. eigenvalues --   -0.58333  -0.58098  -0.53948  -0.52452  -0.50673
 Alpha  occ. eigenvalues --   -0.49527  -0.49420  -0.47774  -0.44861  -0.43939
 Alpha  occ. eigenvalues --   -0.41713  -0.36536  -0.36524  -0.34862  -0.32539
 Alpha  occ. eigenvalues --   -0.31522
 Alpha virt. eigenvalues --   -0.00773  -0.00209   0.00361   0.00717   0.01272
 Alpha virt. eigenvalues --    0.01421   0.01784   0.02442   0.03329   0.03401
 Alpha virt. eigenvalues --    0.03878   0.05461   0.05843   0.06464   0.06549
 Alpha virt. eigenvalues --    0.07051   0.07531   0.08054   0.09387   0.10278
 Alpha virt. eigenvalues --    0.11020   0.11037   0.11362   0.12709   0.12983
 Alpha virt. eigenvalues --    0.13210   0.13587   0.13633   0.14190   0.14454
 Alpha virt. eigenvalues --    0.14834   0.15507   0.15741   0.15808   0.16433
 Alpha virt. eigenvalues --    0.16655   0.16985   0.17852   0.18237   0.19418
 Alpha virt. eigenvalues --    0.20483   0.21437   0.22065   0.22135   0.22935
 Alpha virt. eigenvalues --    0.24751   0.25093   0.26454   0.28085   0.29730
 Alpha virt. eigenvalues --    0.30063   0.30401   0.31340   0.32443   0.32723
 Alpha virt. eigenvalues --    0.32913   0.33947   0.36655   0.38190   0.38549
 Alpha virt. eigenvalues --    0.40073   0.40779   0.41165   0.41989   0.44559
 Alpha virt. eigenvalues --    0.45155   0.45252   0.47471   0.49108   0.51196
 Alpha virt. eigenvalues --    0.52509   0.52824   0.54091   0.56147   0.56977
 Alpha virt. eigenvalues --    0.57285   0.57452   0.58358   0.59497   0.59802
 Alpha virt. eigenvalues --    0.61024   0.62736   0.63339   0.63643   0.64222
 Alpha virt. eigenvalues --    0.65420   0.66484   0.67099   0.68944   0.70318
 Alpha virt. eigenvalues --    0.70348   0.71550   0.73319   0.75574   0.76756
 Alpha virt. eigenvalues --    0.77093   0.80659   0.81431   0.81932   0.85180
 Alpha virt. eigenvalues --    0.88034   0.88394   0.90638   0.91528   0.93801
 Alpha virt. eigenvalues --    0.94019   0.95022   0.95516   0.97360   1.03336
 Alpha virt. eigenvalues --    1.04482   1.05124   1.05242   1.06542   1.08849
 Alpha virt. eigenvalues --    1.12203   1.12501   1.14166   1.15508   1.18120
 Alpha virt. eigenvalues --    1.22042   1.23489   1.32225   1.33682   1.39648
 Alpha virt. eigenvalues --    1.44718   1.45935   1.46027   1.48856   1.48939
 Alpha virt. eigenvalues --    1.49967   1.51650   1.55143   1.55711   1.59105
 Alpha virt. eigenvalues --    1.60061   1.60622   1.60926   1.62566   1.66861
 Alpha virt. eigenvalues --    1.68354   1.68829   1.70250   1.72893   1.77049
 Alpha virt. eigenvalues --    1.77401   1.77935   1.79939   1.86019   1.86281
 Alpha virt. eigenvalues --    1.90125   1.91110   1.94568   1.95041   1.96176
 Alpha virt. eigenvalues --    1.97715   1.99025   2.00979   2.02698   2.04247
 Alpha virt. eigenvalues --    2.05922   2.06413   2.06708   2.09323   2.10151
 Alpha virt. eigenvalues --    2.10786   2.17150   2.19419   2.30361   2.30629
 Alpha virt. eigenvalues --    2.35247   2.43759   2.43922   2.47041   2.48700
 Alpha virt. eigenvalues --    2.50490   2.52208   2.52810   2.60348   2.64740
 Alpha virt. eigenvalues --    2.66133   2.69299   2.71875   2.72816   2.73010
 Alpha virt. eigenvalues --    2.73542   2.76224   2.76783   2.79545   2.84454
 Alpha virt. eigenvalues --    2.84982   2.85565   2.88415   2.94078   2.94311
 Alpha virt. eigenvalues --    2.94353   2.97455   2.98163   3.13649   3.18412
 Alpha virt. eigenvalues --    3.24923   3.38692   3.39347   3.42361   3.48045
 Alpha virt. eigenvalues --    3.52993   3.55431   3.56275   3.66331   3.74256
 Alpha virt. eigenvalues --    3.78869   3.86711   3.93883   3.95175   4.02884
 Alpha virt. eigenvalues --    4.06432   4.08978   4.16446   4.19137   4.20427
 Alpha virt. eigenvalues --    4.28119   4.28367   4.32964   4.35337   4.50614
 Alpha virt. eigenvalues --    4.85718   4.94758   5.09610   5.20931   5.77343
 Alpha virt. eigenvalues --    6.50254   6.58570   6.82260   6.88369   7.62758
 Alpha virt. eigenvalues --    7.65216   7.66868  23.66239  23.99227  24.01018
 Alpha virt. eigenvalues --   24.05103  24.15458  24.16959  24.27532  48.35066
 Alpha virt. eigenvalues --   50.03655  66.94580 290.77476 290.80327 290.83842
 Alpha virt. eigenvalues -- 1020.90566
          Condensed to atoms (all electrons):
               1          2          3          4          5          6
     1  C   14.520721  -6.166903   3.622195  -3.537348   3.549345  -5.563186
     2  C   -6.166903  13.652880  -3.481924   2.956406  -3.328551   1.796304
     3  C    3.622195  -3.481924   9.010823  -2.355297   2.727561  -3.316701
     4  C   -3.537348   2.956406  -2.355297   8.112011  -2.270506   2.820146
     5  C    3.549345  -3.328551   2.727561  -2.270506   8.796058  -3.267065
     6  C   -5.563186   1.796304  -3.316701   2.820146  -3.267065  12.984987
     7  F    0.839060  -0.510939   0.125679  -0.083260   0.123812  -0.494201
     8  H   -0.302265   0.681656  -0.143735   0.087862  -0.073026   0.053692
     9  H    0.060262  -0.049824   0.352348  -0.038313   0.001192   0.005949
    10  H   -0.011646   0.003933  -0.012914   0.359624  -0.012085   0.004541
    11  H    0.051192   0.008724  -0.001728  -0.032931   0.348542  -0.043269
    12  H   -0.285786   0.057388  -0.075051   0.084466  -0.139504   0.662641
    13  O    0.010009  -0.002692  -0.000541  -0.000042  -0.000518  -0.002932
    14  C    0.003517  -0.002657   0.000669  -0.000260   0.000663  -0.002327
    15  H   -0.000395   0.000235  -0.000087   0.000044  -0.000086   0.000211
    16  H   -0.000454   0.000176   0.000009   0.000001   0.000007   0.000161
    17  H   -0.142328   0.074582  -0.027004   0.030824  -0.027036   0.072821
    18  Br   0.323543  -0.179722   0.068015  -0.063114   0.067129  -0.171271
               7          8          9         10         11         12
     1  C    0.839060  -0.302265   0.060262  -0.011646   0.051192  -0.285786
     2  C   -0.510939   0.681656  -0.049824   0.003933   0.008724   0.057388
     3  C    0.125679  -0.143735   0.352348  -0.012914  -0.001728  -0.075051
     4  C   -0.083260   0.087862  -0.038313   0.359624  -0.032931   0.084466
     5  C    0.123812  -0.073026   0.001192  -0.012085   0.348542  -0.139504
     6  C   -0.494201   0.053692   0.005949   0.004541  -0.043269   0.662641
     7  F    9.194592  -0.025581   0.001542  -0.000736   0.001375  -0.025564
     8  H   -0.025581   0.464018  -0.003805   0.001370   0.000379   0.003239
     9  H    0.001542  -0.003805   0.434894   0.001502  -0.000535   0.000299
    10  H   -0.000736   0.001370   0.001502   0.439808   0.001714   0.001301
    11  H    0.001375   0.000379  -0.000535   0.001714   0.434326  -0.002899
    12  H   -0.025564   0.003239   0.000299   0.001301  -0.002899   0.461933
    13  O    0.003263   0.000687  -0.000006  -0.000001  -0.000007   0.000724
    14  C    0.000153  -0.000395   0.000008  -0.000002   0.000007  -0.000404
    15  H   -0.000146   0.000018  -0.000002   0.000000  -0.000002   0.000018
    16  H   -0.000066  -0.000000   0.000001  -0.000000   0.000001  -0.000001
    17  H    0.004051   0.005331  -0.000458   0.000269  -0.000394   0.005377
    18  Br  -0.009222  -0.008201   0.000791  -0.000525   0.000674  -0.008157
              13         14         15         16         17         18
     1  C    0.010009   0.003517  -0.000395  -0.000454  -0.142328   0.323543
     2  C   -0.002692  -0.002657   0.000235   0.000176   0.074582  -0.179722
     3  C   -0.000541   0.000669  -0.000087   0.000009  -0.027004   0.068015
     4  C   -0.000042  -0.000260   0.000044   0.000001   0.030824  -0.063114
     5  C   -0.000518   0.000663  -0.000086   0.000007  -0.027036   0.067129
     6  C   -0.002932  -0.002327   0.000211   0.000161   0.072821  -0.171271
     7  F    0.003263   0.000153  -0.000146  -0.000066   0.004051  -0.009222
     8  H    0.000687  -0.000395   0.000018  -0.000000   0.005331  -0.008201
     9  H   -0.000006   0.000008  -0.000002   0.000001  -0.000458   0.000791
    10  H   -0.000001  -0.000002   0.000000  -0.000000   0.000269  -0.000525
    11  H   -0.000007   0.000007  -0.000002   0.000001  -0.000394   0.000674
    12  H    0.000724  -0.000404   0.000018  -0.000001   0.005377  -0.008157
    13  O    8.129555   0.315813  -0.079429  -0.083403   0.008596  -0.004634
    14  C    0.315813   4.859754   0.392405   0.397292  -0.000912  -0.000054
    15  H   -0.079429   0.392405   0.656988  -0.104123   0.000489  -0.000010
    16  H   -0.083403   0.397292  -0.104123   0.658021   0.000098   0.000023
    17  H    0.008596  -0.000912   0.000489   0.000098   0.636820   0.233215
    18  Br  -0.004634  -0.000054  -0.000010   0.000023   0.233215  34.875675
 Mulliken charges:
               1
     1  C   -0.969535
     2  C    0.490930
     3  C   -0.492318
     4  C   -0.070314
     5  C   -0.495933
     6  C    0.459499
     7  F   -0.143812
     8  H    0.258757
     9  H    0.234155
    10  H    0.223846
    11  H    0.234829
    12  H    0.259979
    13  O   -0.294443
    14  C    0.036730
    15  H    0.133870
    16  H    0.132258
    17  H    0.125657
    18  Br  -0.124156
 Sum of Mulliken charges =  -0.00000
 Mulliken charges with hydrogens summed into heavy atoms:
               1
     1  C   -0.969535
     2  C    0.749687
     3  C   -0.258163
     4  C    0.153532
     5  C   -0.261104
     6  C    0.719478
     7  F   -0.143812
    13  O   -0.294443
    14  C    0.302858
    18  Br   0.001501
 APT charges:
               1
     1  C   -0.654782
     2  C   -0.343303
     3  C   -0.536113
     4  C   -0.632891
     5  C   -0.543958
     6  C   -0.359538
     7  F   -0.140050
     8  H    0.363843
     9  H    0.763783
    10  H    0.939941
    11  H    0.765085
    12  H    0.358063
    13  O   -1.107108
    14  C   -0.125900
    15  H    0.456997
    16  H    0.798603
    17  H   -0.024621
    18  Br   0.021949
 Sum of APT charges =  -0.00000
 APT charges with hydrogens summed into heavy atoms:
               1
     1  C   -0.654782
     2  C    0.020540
     3  C    0.227670
     4  C    0.307050
     5  C    0.221127
     6  C   -0.001476
     7  F   -0.140050
    13  O   -1.107108
    14  C    1.129700
    18  Br  -0.002671
 Electronic spatial extent (au):  <R**2>=           3663.9057
 Charge=              0.0000 electrons
 Dipole moment (field-independent basis, Debye):
    X=              0.6599    Y=             -1.6962    Z=             -0.0095  Tot=              1.8201
 Quadrupole moment (field-independent basis, Debye-Ang):
   XX=            -37.2320   YY=            -75.1290   ZZ=            -65.1224
   XY=             -8.5321   XZ=              0.1388   YZ=             -0.0414
 Traceless Quadrupole moment (field-independent basis, Debye-Ang):
   XX=             21.9291   YY=            -15.9679   ZZ=             -5.9612
   XY=             -8.5321   XZ=              0.1388   YZ=             -0.0414
 Octapole moment (field-independent basis, Debye-Ang**2):
  XXX=            175.9912  YYY=             53.9414  ZZZ=             -0.1393  XYY=             50.3848
  XXY=            -44.7807  XXZ=             -0.2214  XZZ=              1.5428  YZZ=              9.5396
  YYZ=              0.0015  XYZ=             -0.0750
 Hexadecapole moment (field-independent basis, Debye-Ang**3):
 XXXX=          -1937.5610 YYYY=          -1035.4936 ZZZZ=           -290.6589 XXXY=           -366.4710
 XXXZ=              1.4565 YYYX=            -75.3639 YYYZ=              0.4088 ZZZX=              0.5446
 ZZZY=              0.0120 XXYY=           -599.9390 XXZZ=           -535.8907 YYZZ=           -241.1804
 XXYZ=             -0.0282 YYXZ=              0.3483 ZZXY=             13.0543
 N-N= 6.566778335510D+02 E-N=-8.513618099405D+03  KE= 3.016091596124D+03
  Exact polarizability:   0.000   0.000   0.000   0.000   0.000   0.000
 Approx polarizability: 143.733  -8.178  95.072   0.249  -0.144 126.605
 Rotating derivatives to standard orientation.
 ***** Axes restored to original set *****
 -------------------------------------------------------------------
 Center     Atomic                   Forces (Hartrees/Bohr)
 Number     Number              X              Y              Z
 -------------------------------------------------------------------
      1        6           0.015381444   -0.001318955   -0.001760489
      2        6          -0.016026319    0.000233684    0.005409813
      3        6           0.005655646    0.000113206    0.000405749
      4        6           0.004376729   -0.000015195   -0.003802063
      5        6          -0.007020676    0.000113781    0.002256604
      6        6           0.001628023    0.000238650   -0.000792034
      7        9          -0.000345972    0.000633349    0.001567818
      8        1          -0.000990539   -0.000020624   -0.001715675
      9        1          -0.001155692    0.000015726   -0.000000006
     10        1           0.000171956   -0.000008068   -0.000297863
     11        1          -0.000599030    0.000017390   -0.001037537
     12        1          -0.000658616   -0.000018998    0.000012832
     13        8           0.000030410    0.000055175   -0.000053229
     14        6           0.007317207    0.000039086    0.004459802
     15        1          -0.003668932   -0.002469706   -0.002200062
     16        1          -0.003678631    0.002476766   -0.002207678
     17        1          -0.000707567   -0.000025439   -0.000419958
     18       35           0.000290556   -0.000059828    0.000173976
 -------------------------------------------------------------------
 Cartesian Forces:  Max     0.016026319 RMS     0.003811536
 -----------------------------------------------------------------------------------------------
                       Internal Coordinate Forces (Hartree/Bohr or radian)
  Cent   Atom   N1       Length/X         N2         Alpha/Y        N3         Beta/Z          J
 -----------------------------------------------------------------------------------------------
      1  C 
      2  C        1  -0.000000(     1)
      3  C        2  -0.000000(     2)      1  -0.034821(    18)
      4  C        3  -0.000000(     3)      2  -0.027724(    19)      1   0.001617(    34)     0
      5  C        4   0.000000(     4)      3  -0.017672(    20)      2   0.001353(    35)     0
      6  C        5  -0.000000(     5)      4   0.001270(    21)      3   0.000548(    36)     0
      7  F        1   0.000000(     6)      2  -0.003888(    22)      3   0.001247(    37)     0
      8  H        2  -0.000000(     7)      3   0.004058(    23)      4  -0.000037(    38)     0
      9  H        3  -0.000000(     8)      4   0.002365(    24)      5   0.000028(    39)     0
     10  H        4  -0.000000(     9)      5  -0.000704(    25)      6  -0.000014(    40)     0
     11  H        5  -0.000000(    10)      6  -0.002451(    26)      1   0.000031(    41)     0
     12  H        6  -0.000000(    11)      1  -0.001348(    27)      2  -0.000034(    42)     0
     13  O        7   0.000001(    12)      1  -0.000005(    28)      3  -0.000001(    43)     0
     14  C       13   0.000000(    13)      1   0.000111(    29)      2  -0.000000(    44)     0
     15  H       14  -0.000000(    14)      1   0.010276(    30)      2   0.000115(    45)     0
     16  H       14  -0.000000(    15)      1   0.010306(    31)      2  -0.000118(    46)     0
     17  H        7   0.000000(    16)      1   0.001047(    32)      2   0.000004(    47)     0
     18  Br      17  -0.000000(    17)      7  -0.000926(    33)      1  -0.000005(    48)     0
 -----------------------------------------------------------------------------------------------
 Internal  Forces:  Max     0.034820627 RMS     0.007303805
 1\1\GINC-LOCALHOST\POpt\RM062X\6-311++G(d,p)\C7H8Br1F1O1\LYWU\06-Jan-2
 025\1\\# m062x 6-311++G(d,p) opt=(z-matrix,recalc=5) scrf=(solvent=dic
 hloroethane)\\test\\0,1\C\C,1,d1\C,2,d2,1,120.\C,3,d3,2,120.,1,0.,0\C,
 4,d4,3,120.,2,0.,0\C,5,d5,4,120.,3,0.,0\F,1,d6,2,120.,3,180.,0\H,2,d7,
 3,120.,4,180.,0\H,3,d8,4,120.,5,180.,0\H,4,d9,5,120.,6,180.,0\H,5,d10,
 6,120.,1,180.,0\H,6,d11,1,120.,2,180.,0\O,7,d12,1,179.9,3,180.,0\C,13,
 d13,1,179.9,2,180.,0\H,14,d14,1,120.,2,90.,0\H,14,d15,1,120.,2,-90.,0\
 H,7,d16,1,100.,2,90.,0\Br,17,d17,7,160.,1,0.,0\\d1=1.37923192\d2=1.383
 83168\d3=1.38788528\d4=1.39548921\d5=1.39879626\d6=1.35263861\d7=1.083
 96279\d8=1.08274319\d9=1.0830612\d10=1.08267809\d11=1.08325492\d12=3.6
 2980625\d13=1.20397175\d14=1.10096959\d15=1.10098757\d16=2.12426117\d1
 7=1.42533222\\Version=ES64L-G16RevB.01\State=1-A\HF=-3020.7084282\RMSD
 =5.706e-09\RMSF=3.812e-03\Dipole=-0.3202658,-0.613903,-0.1825541\Polar
 =0.,0.,0.,0.,0.,0.\Quadrupole=12.000083,-13.1800327,1.1799497,1.122229
 1,9.6035693,0.6368244\PG=C01 [X(C7H8Br1F1O1)]\\@


 UNDER MOST GREENE GRASSE LY MOST GREATE SNAKES.
 -- PROVERBS AND REASONS OF THE YEAR 1585
           AS REPRINTED IN PAISLEY MAGAZINE 1828.
 Job cpu time:       0 days  4 hours 14 minutes 14.2 seconds.
 Elapsed time:       0 days  1 hours  3 minutes 44.3 seconds.
 File lengths (MBytes):  RWF=    299 Int=      0 D2E=      0 Chk=     18 Scr=      1
 Normal termination of Gaussian 16 at Mon Jan  6 19:46:29 2025.
