 Entering Gaussian System, Link 0=g16
 Input=model_H2b.gjf
 Output=model_H2b.log
 Initial command:
 /home/lywu/software/g16/l1.exe "/home/lywu/software/g16/scr/Gau-5926.inp" -scrdir="/home/lywu/software/g16/scr/"
 Entering Link 1 = /home/lywu/software/g16/l1.exe PID=      5934.
  
 Copyright (c) 1988-2017, Gaussian, Inc.  All Rights Reserved.
  
 This is part of the Gaussian(R) 16 program.  It is based on
 the Gaussian(R) 09 system (copyright 2009, Gaussian, Inc.),
 the Gaussian(R) 03 system (copyright 2003, Gaussian, Inc.),
 the Gaussian(R) 98 system (copyright 1998, Gaussian, Inc.),
 the Gaussian(R) 94 system (copyright 1995, Gaussian, Inc.),
 the Gaussian 92(TM) system (copyright 1992, Gaussian, Inc.),
 the Gaussian 90(TM) system (copyright 1990, Gaussian, Inc.),
 the Gaussian 88(TM) system (copyright 1988, Gaussian, Inc.),
 the Gaussian 86(TM) system (copyright 1986, Carnegie Mellon
 University), and the Gaussian 82(TM) system (copyright 1983,
 Carnegie Mellon University). Gaussian is a federally registered
 trademark of Gaussian, Inc.
  
 This software contains proprietary and confidential information,
 including trade secrets, belonging to Gaussian, Inc.
  
 This software is provided under written license and may be
 used, copied, transmitted, or stored only in accord with that
 written license.
  
 The following legend is applicable only to US Government
 contracts under FAR:
  
                    RESTRICTED RIGHTS LEGEND
  
 Use, reproduction and disclosure by the US Government is
 subject to restrictions as set forth in subparagraphs (a)
 and (c) of the Commercial Computer Software - Restricted
 Rights clause in FAR 52.227-19.
  
 Gaussian, Inc.
 340 Quinnipiac St., Bldg. 40, Wallingford CT 06492
  
  
 ---------------------------------------------------------------
 Warning -- This program may not be used in any manner that
 competes with the business of Gaussian, Inc. or will provide
 assistance to any competitor of Gaussian, Inc.  The licensee
 of this program is prohibited from giving any competitor of
 Gaussian, Inc. access to this program.  By using this program,
 the user acknowledges that Gaussian, Inc. is engaged in the
 business of creating and licensing software in the field of
 computational chemistry and represents and warrants to the
 licensee that it is not a competitor of Gaussian, Inc. and that
 it will not use this program in any manner prohibited above.
 ---------------------------------------------------------------
  

 Cite this work as:
 Gaussian 16, Revision B.01,
 M. J. Frisch, G. W. Trucks, H. B. Schlegel, G. E. Scuseria, 
 M. A. Robb, J. R. Cheeseman, G. Scalmani, V. Barone, 
 G. A. Petersson, H. Nakatsuji, X. Li, M. Caricato, A. V. Marenich, 
 J. Bloino, B. G. Janesko, R. Gomperts, B. Mennucci, H. P. Hratchian, 
 J. V. Ortiz, A. F. Izmaylov, J. L. Sonnenberg, D. Williams-Young, 
 F. Ding, F. Lipparini, F. Egidi, J. Goings, B. Peng, A. Petrone, 
 T. Henderson, D. Ranasinghe, V. G. Zakrzewski, J. Gao, N. Rega, 
 G. Zheng, W. Liang, M. Hada, M. Ehara, K. Toyota, R. Fukuda, 
 J. Hasegawa, M. Ishida, T. Nakajima, Y. Honda, O. Kitao, H. Nakai, 
 T. Vreven, K. Throssell, J. A. Montgomery, Jr., J. E. Peralta, 
 F. Ogliaro, M. J. Bearpark, J. J. Heyd, E. N. Brothers, K. N. Kudin, 
 V. N. Staroverov, T. A. Keith, R. Kobayashi, J. Normand, 
 K. Raghavachari, A. P. Rendell, J. C. Burant, S. S. Iyengar, 
 J. Tomasi, M. Cossi, J. M. Millam, M. Klene, C. Adamo, R. Cammi, 
 J. W. Ochterski, R. L. Martin, K. Morokuma, O. Farkas, 
 J. B. Foresman, and D. J. Fox, Gaussian, Inc., Wallingford CT, 2016.
 
 ******************************************
 Gaussian 16:  ES64L-G16RevB.01 20-Dec-2017
                 6-Jan-2025 
 ******************************************
 %mem=4GB
 %nproc=4
 Will use up to    4 processors via shared memory.
 ----------------------------------------------------------------------
 # m062x 6-311++G(d,p) opt=(recalc=5,z-matrix) scrf=(solvent=dichloroet
 hane)
 ----------------------------------------------------------------------
 1/10=7,18=40,26=3,38=1,71=5/1,3;
 2/12=2,17=6,18=5,29=3,40=1/2;
 3/5=4,6=6,7=1111,11=2,25=1,30=1,70=2201,71=2,72=10,74=-55,140=1/1,2,3;
 4//1;
 5/5=2,38=5,53=10/2;
 8/6=4,10=90,11=11/1;
 11/6=1,8=1,9=11,15=111,16=1/1,2,10;
 10/6=1/2;
 6/7=2,8=2,9=2,10=2,28=1/1;
 7/10=1,25=1/1,2,3,16;
 1/10=7,18=40,26=3,71=5/3(3);
 2/29=3/2;
 7/9=1,25=1,44=-1/16;
 99//99;
 2/29=3/2;
 3/5=4,6=6,7=1111,11=2,25=1,30=1,70=2205,71=2,72=10,74=-55,140=1/1,2,3;
 4/5=5,16=3,69=1/1;
 5/5=2,38=5,53=10/2;
 8/6=4,10=90,11=11/1;
 11/6=1,8=1,9=11,15=111,16=1/1,2,10;
 10/6=1/2;
 7/10=1,25=1/1,2,3,16;
 1/18=40,26=3,71=5/3(-8);
 2/29=3/2;
 6/7=2,8=2,9=2,10=2,19=2,28=1/1;
 7/9=1,25=1,44=-1/16;
 99/9=1/99;
 ----
 test
 ----
 Symbolic Z-matrix:
 Charge =  0 Multiplicity = 1
 C1
 C2                   1    d1
 C3                   2    d2       1     120. 
 C4                   3    d3       2     120.     1     0.       0
 C5                   4    d4       3     120.     2     0.       0
 C6                   5    d5       4     120.     3     0.       0
 F7                   1    d6       2     120.     3     180.     0
 H8                   2    d7       3     120.     4     180.     0
 H9                   3    d8       4     120.     5     180.     0
 H10                  4    d9       5     120.     6     180.     0
 H11                  5    d10      6     120.     1     180.     0
 H12                  6    d11      1     120.     2     180.     0
 O13                  7    d12      1     179.9    3     180.     0
 C14                  13   d13      1     179.9    2     180.     0
 H15                  14   d14      1     120.     2     90.      0
 H16                  14   d15      1     120.     2    -90.      0
 H17                  7    d16      1     100.     2     90.      0
 Br18                 17   d17      7     160.     1     0.       0
 H19                  7    d18      1     100.     2    -90.      0
 Br20                 19   d19      7     160.     1     0.       0
       Variables:
  d1                    1.3                      
  d2                    1.3                      
  d3                    1.3                      
  d4                    1.3                      
  d5                    1.3                      
  d6                    1.4                      
  d7                    1.                       
  d8                    1.                       
  d9                    1.                       
  d10                   1.                       
  d11                   1.                       
  d12                   2.8                      
  d13                   1.2                      
  d14                   1.                       
  d15                   1.                       
  d16                   2.3                      
  d17                   0.9                      
  d18                   2.3                      
  d19                   0.9                      
 

 GradGradGradGradGradGradGradGradGradGradGradGradGradGradGradGradGradGrad
 Berny optimization.
 Initialization pass.
                       ----------------------------
                       !    Initial Parameters    !
                       ! (Angstroms and Degrees)  !
 ----------------------                            ----------------------
 !      Name          Value   Derivative information (Atomic Units)     !
 ------------------------------------------------------------------------
 !       d1          1.3      calculate D2E/DX2 analytically            !
 !       d2          1.3      calculate D2E/DX2 analytically            !
 !       d3          1.3      calculate D2E/DX2 analytically            !
 !       d4          1.3      calculate D2E/DX2 analytically            !
 !       d5          1.3      calculate D2E/DX2 analytically            !
 !       d6          1.4      calculate D2E/DX2 analytically            !
 !       d7          1.0      calculate D2E/DX2 analytically            !
 !       d8          1.0      calculate D2E/DX2 analytically            !
 !       d9          1.0      calculate D2E/DX2 analytically            !
 !       d10         1.0      calculate D2E/DX2 analytically            !
 !       d11         1.0      calculate D2E/DX2 analytically            !
 !       d12         2.8      calculate D2E/DX2 analytically            !
 !       d13         1.2      calculate D2E/DX2 analytically            !
 !       d14         1.0      calculate D2E/DX2 analytically            !
 !       d15         1.0      calculate D2E/DX2 analytically            !
 !       d16         2.3      calculate D2E/DX2 analytically            !
 !       d17         0.9      calculate D2E/DX2 analytically            !
 !       d18         2.3      calculate D2E/DX2 analytically            !
 !       d19         0.9      calculate D2E/DX2 analytically            !
 ------------------------------------------------------------------------
 Trust Radius=3.00D-01 FncErr=1.00D-07 GrdErr=1.00D-06 EigMax=2.50D+02 EigMin=1.00D-04
 Number of steps in this run=     29 maximum allowed number of steps=    100.
 GradGradGradGradGradGradGradGradGradGradGradGradGradGradGradGradGradGrad

 ---------------------------------------------------------------------------------------------------
                            Z-MATRIX (ANGSTROMS AND DEGREES)
   CD    Cent   Atom    N1       Length/X        N2       Alpha/Y        N3        Beta/Z          J
 ---------------------------------------------------------------------------------------------------
      1      1  C 
      2      2  C        1   1.300000(     1)
      3      3  C        2   1.300000(     2)      1  120.000(    20)
      4      4  C        3   1.300000(     3)      2  120.000(    21)      1    0.000(    38)      0
      5      5  C        4   1.300000(     4)      3  120.000(    22)      2    0.000(    39)      0
      6      6  C        5   1.300000(     5)      4  120.000(    23)      3    0.000(    40)      0
      7      7  F        1   1.400000(     6)      2  120.000(    24)      3  180.000(    41)      0
      8      8  H        2   1.000000(     7)      3  120.000(    25)      4  180.000(    42)      0
      9      9  H        3   1.000000(     8)      4  120.000(    26)      5  180.000(    43)      0
     10     10  H        4   1.000000(     9)      5  120.000(    27)      6  180.000(    44)      0
     11     11  H        5   1.000000(    10)      6  120.000(    28)      1  180.000(    45)      0
     12     12  H        6   1.000000(    11)      1  120.000(    29)      2  180.000(    46)      0
     13     13  O        7   2.800000(    12)      1  179.900(    30)      3  180.000(    47)      0
     14     14  C       13   1.200000(    13)      1  179.900(    31)      2  180.000(    48)      0
     15     15  H       14   1.000000(    14)      1  120.000(    32)      2   90.000(    49)      0
     16     16  H       14   1.000000(    15)      1  120.000(    33)      2  -90.000(    50)      0
     17     17  H        7   2.300000(    16)      1  100.000(    34)      2   90.000(    51)      0
     18     18  Br      17   0.900000(    17)      7  160.000(    35)      1    0.000(    52)      0
     19     19  H        7   2.300000(    18)      1  100.000(    36)      2  -90.000(    53)      0
     20     20  Br      19   0.900000(    19)      7  160.000(    37)      1    0.000(    54)      0
 ---------------------------------------------------------------------------------------------------
                         Z-Matrix orientation:                         
 ---------------------------------------------------------------------
 Center     Atomic      Atomic             Coordinates (Angstroms)
 Number     Number       Type             X           Y           Z
 ---------------------------------------------------------------------
      1          6           0        0.000000    0.000000    0.000000
      2          6           0        0.000000    0.000000    1.300000
      3          6           0        1.125833    0.000000    1.950000
      4          6           0        2.251666    0.000000    1.300000
      5          6           0        2.251666    0.000000   -0.000000
      6          6           0        1.125833    0.000000   -0.650000
      7          9           0       -1.212436   -0.000000   -0.700000
      8          1           0       -0.866025   -0.000000    1.800000
      9          1           0        1.125833   -0.000000    2.950000
     10          1           0        3.117691   -0.000000    1.800000
     11          1           0        3.117691   -0.000000   -0.500000
     12          1           0        1.125833   -0.000000   -1.650000
     13          8           0       -3.634860   -0.000000   -2.104230
     14          6           0       -4.672340   -0.000000   -2.707251
     15          1           0       -5.104965    0.866025   -2.957922
     16          1           0       -5.104965   -0.866025   -2.957922
     17          1           0       -1.558318    2.265058   -0.899695
     18         35           0       -1.422973    3.151385   -0.821554
     19          1           0       -1.558318   -2.265058   -0.899695
     20         35           0       -1.422973   -3.151385   -0.821554
 ---------------------------------------------------------------------
                    Distance matrix (angstroms):
                    1          2          3          4          5
     1  C    0.000000
     2  C    1.300000   0.000000
     3  C    2.251666   1.300000   0.000000
     4  C    2.600000   2.251666   1.300000   0.000000
     5  C    2.251666   2.600000   2.251666   1.300000   0.000000
     6  C    1.300000   2.251666   2.600000   2.251666   1.300000
     7  F    1.400000   2.338803   3.534119   4.000000   3.534119
     8  H    1.997498   1.000000   1.997498   3.157531   3.600000
     9  H    3.157531   1.997498   1.000000   1.997498   3.157531
    10  H    3.600000   3.157531   1.997498   1.000000   1.997498
    11  H    3.157531   3.600000   3.157531   1.997498   1.000000
    12  H    1.997498   3.157531   3.600000   3.157531   1.997498
    13  O    4.199999   4.980059   6.253077   6.799997   6.251317
    14  C    5.399997   6.155390   7.436988   7.999995   7.434452
    15  H    5.963218   6.703772   7.978755   8.543999   7.976172
    16  H    5.963218   6.703772   7.978755   8.543999   7.976172
    17  H    2.892800   3.521009   4.522822   4.948245   4.522822
    18  Br   3.554016   4.056731   4.910107   5.285375   4.910107
    19  H    2.892800   3.521009   4.522822   4.948245   4.522822
    20  Br   3.554016   4.056731   4.910107   5.285375   4.910107
                    6          7          8          9         10
     6  C    0.000000
     7  F    2.338803   0.000000
     8  H    3.157531   2.523886   0.000000
     9  H    3.600000   4.334743   2.300000   0.000000
    10  H    3.157531   5.000000   3.983717   2.300000   0.000000
    11  H    1.997498   4.334743   4.600000   3.983717   2.300000
    12  H    1.000000   2.523886   3.983717   4.600000   3.983717
    13  O    4.977849   2.800000   4.786382   6.943301   7.799997
    14  C    6.152324   3.999999   5.899436   8.100821   8.999995
    15  H    6.700697   4.582575   6.430896   8.629970   9.539387
    16  H    6.700697   4.582575   6.430896   8.629970   9.539387
    17  H    3.521009   2.300000   3.591394   5.211076   5.855246
    18  Br   4.056731   3.160748   4.136902   5.536448   6.117303
    19  H    3.521009   2.300000   3.591394   5.211076   5.855246
    20  Br   4.056731   3.160748   4.136902   5.536448   6.117303
                   11         12         13         14         15
    11  H    0.000000
    12  H    2.300000   0.000000
    13  O    6.940497   4.782313   0.000000
    14  C    8.096700   5.893776   1.200000   0.000000
    15  H    8.625744   6.425224   1.907878   1.000000   0.000000
    16  H    8.625744   6.425224   1.907878   1.000000   1.732051
    17  H    5.211076   3.591394   3.300517   4.253807   4.332700
    18  Br   5.536448   4.136902   4.058193   4.903618   4.831563
    19  H    5.211076   3.591394   3.300517   4.253807   5.159329
    20  Br   5.536448   4.136902   4.058193   4.903618   5.853266
                   16         17         18         19         20
    16  H    0.000000
    17  H    5.159329   0.000000
    18  Br   5.853266   0.900000   0.000000
    19  H    4.332700   4.530116   5.418697   0.000000
    20  Br   4.831563   5.418697   6.302770   0.900000   0.000000
 Stoichiometry    C7H9Br2FO
 Framework group  CS[SG(C7H5FO),X(H4Br2)]
 Deg. of freedom    34
 Full point group                 CS      NOp   2
 Largest Abelian subgroup         CS      NOp   2
 Largest concise Abelian subgroup CS      NOp   2
                         Standard orientation:                         
 ---------------------------------------------------------------------
 Center     Atomic      Atomic             Coordinates (Angstroms)
 Number     Number       Type             X           Y           Z
 ---------------------------------------------------------------------
      1          6           0       -0.000780   -1.111712    0.000000
      2          6           0       -1.126613   -1.761712    0.000000
      3          6           0       -1.126613   -3.061712    0.000000
      4          6           0       -0.000780   -3.711712    0.000000
      5          6           0        1.125053   -3.061712    0.000000
      6          6           0        1.125053   -1.761712    0.000000
      7          9           0       -0.000780    0.288288   -0.000000
      8          1           0       -1.992639   -1.261712    0.000000
      9          1           0       -1.992639   -3.561712    0.000000
     10          1           0       -0.000780   -4.711712    0.000000
     11          1           0        1.991078   -3.561712    0.000000
     12          1           0        1.991078   -1.261712    0.000000
     13          8           0        0.004107    3.088284   -0.000000
     14          6           0        0.007597    4.288279   -0.000000
     15          1           0        0.008373    4.788279    0.866025
     16          1           0        0.008373    4.788279   -0.866025
     17          1           0       -0.000780    0.687679    2.265058
     18         35           0       -0.000780    0.531396    3.151385
     19          1           0       -0.000780    0.687679   -2.265058
     20         35           0       -0.000780    0.531396   -3.151385
 ---------------------------------------------------------------------
 Rotational constants (GHZ):           0.4707583           0.3051438           0.1961820
 Standard basis: 6-311++G(d,p) (5D, 7F)
 There are   248 symmetry adapted cartesian basis functions of A'  symmetry.
 There are   124 symmetry adapted cartesian basis functions of A"  symmetry.
 There are   236 symmetry adapted basis functions of A'  symmetry.
 There are   121 symmetry adapted basis functions of A"  symmetry.
   357 basis functions,   593 primitive gaussians,   372 cartesian basis functions
    69 alpha electrons       69 beta electrons
       nuclear repulsion energy      1146.3588038004 Hartrees.
 NAtoms=   20 NActive=   20 NUniq=   17 SFac= 1.38D+00 NAtFMM=   60 NAOKFM=F Big=F
 Integral buffers will be    131072 words long.
 Raffenetti 2 integral format.
 Two-electron integral symmetry is turned on.
 Force inversion solution in PCM.
 ------------------------------------------------------------------------------
 Polarizable Continuum Model (PCM)
 =================================
 Model                : PCM.
 Atomic radii         : UFF (Universal Force Field).
 Polarization charges : Total charges.
 Charge compensation  : None.
 Solution method      : Matrix inversion.
 Cavity type          : Scaled VdW (van der Waals Surface) (Alpha=1.100).
 Cavity algorithm     : GePol (No added spheres)
                        Default sphere list used, NSphG=   20.
                        Lebedev-Laikov grids with approx.  5.0 points / Ang**2.
                        Smoothing algorithm: York/Karplus (Gamma=1.0000).
                        Polarization charges: spherical gaussians, with
                                              point-specific exponents (IZeta= 3).
                        Self-potential: point-specific (ISelfS= 7).
                        Self-field    : sphere-specific E.n sum rule (ISelfD= 2).
 1st derivatives      : Analytical E(r).r(x)/FMM algorithm (CHGder, D1EAlg=3).
                        Cavity 1st derivative terms included.
 2nd derivatives      : Analytical E(r).r(xy)/FMM algorithm (CHGder, D2EAlg=3).
                        Cavity 2nd derivative terms included.
 Solvent              : DiChloroEthane, Eps=  10.125000 Eps(inf)=   2.087447
 ------------------------------------------------------------------------------
 Spheres list:
 ISph  on   Nord     Re0    Alpha      Xe            Ye            Ze
    1   C      1    1.9255  1.100     -0.000780     -1.111712      0.000000
    2   C      2    1.9255  1.100     -1.126613     -1.761712      0.000000
    3   C      3    1.9255  1.100     -1.126613     -3.061712      0.000000
    4   C      4    1.9255  1.100     -0.000780     -3.711712      0.000000
    5   C      5    1.9255  1.100      1.125053     -3.061712      0.000000
    6   C      6    1.9255  1.100      1.125053     -1.761712      0.000000
    7   F      7    1.6820  1.100     -0.000780      0.288288     -0.000000
    8   H      8    1.4430  1.100     -1.992639     -1.261712      0.000000
    9   H      9    1.4430  1.100     -1.992639     -3.561712      0.000000
   10   H     10    1.4430  1.100     -0.000780     -4.711712      0.000000
   11   H     11    1.4430  1.100      1.991078     -3.561712      0.000000
   12   H     12    1.4430  1.100      1.991078     -1.261712      0.000000
   13   O     13    1.7500  1.100      0.004107      3.088284     -0.000000
   14   C     14    1.9255  1.100      0.007597      4.288279     -0.000000
   15   H     15    1.4430  1.100      0.008373      4.788279      0.866025
   16   H     16    1.4430  1.100      0.008373      4.788279     -0.866025
   17   H     17    1.4430  1.100     -0.000780      0.687679      2.265058
   18  Br     18    2.0945  1.100     -0.000780      0.531396      3.151385
   19   H     19    1.4430  1.100     -0.000780      0.687679     -2.265058
   20  Br     20    2.0945  1.100     -0.000780      0.531396     -3.151385
 ------------------------------------------------------------------------------
 One-electron integrals computed using PRISM.
 NBasis=   357 RedAO= T EigKep=  3.61D-06  NBF=   236   121
 NBsUse=   356 1.00D-06 EigRej=  4.00D-07 NBFU=   235   121
 ExpMin= 3.50D-02 ExpMax= 4.40D+05 ExpMxC= 1.51D+04 IAcc=3 IRadAn=         5 AccDes= 0.00D+00
 Harris functional with IExCor= 1009 and IRadAn=       5 diagonalized for initial guess.
 HarFok:  IExCor= 1009 AccDes= 0.00D+00 IRadAn=         5 IDoV= 1 UseB2=F ITyADJ=14
 ICtDFT=  3500011 ScaDFX=  1.000000  1.000000  1.000000  1.000000
 FoFCou: FMM=F IPFlag=           0 FMFlag=      100000 FMFlg1=           0
         NFxFlg=           0 DoJE=T BraDBF=F KetDBF=T FulRan=T
         wScrn=  0.000000 ICntrl=       500 IOpCl=  0 I1Cent=   200000004 NGrid=           0
         NMat0=    1 NMatS0=      1 NMatT0=    0 NMatD0=    1 NMtDS0=    0 NMtDT0=    0
 Petite list used in FoFCou.
 Initial guess orbital symmetries:
       Occupied  (A") (A') (A") (A') (A") (A') (A') (A") (A') (A")
                 (A') (A') (A') (A') (A') (A') (A') (A') (A') (A")
                 (A') (A") (A') (A') (A") (A') (A") (A") (A') (A')
                 (A") (A') (A") (A') (A') (A") (A") (A') (A') (A')
                 (A") (A') (A') (A') (A') (A') (A') (A') (A') (A")
                 (A') (A') (A') (A") (A') (A') (A") (A') (A') (A')
                 (A") (A') (A") (A') (A") (A") (A') (A") (A")
       Virtual   (A') (A") (A") (A') (A') (A") (A') (A') (A') (A')
                 (A") (A') (A") (A') (A") (A') (A") (A") (A') (A')
                 (A') (A') (A') (A") (A') (A") (A') (A") (A') (A')
                 (A') (A') (A") (A') (A') (A") (A') (A") (A') (A')
                 (A") (A') (A') (A") (A') (A') (A") (A') (A') (A')
                 (A") (A') (A') (A') (A') (A') (A') (A") (A') (A')
                 (A') (A') (A") (A') (A') (A') (A') (A") (A') (A")
                 (A') (A') (A") (A') (A') (A') (A') (A") (A") (A')
                 (A') (A") (A') (A') (A") (A') (A') (A') (A') (A")
                 (A") (A') (A') (A') (A") (A') (A") (A') (A") (A")
                 (A") (A') (A') (A') (A") (A') (A') (A') (A") (A')
                 (A') (A') (A') (A') (A') (A") (A') (A') (A') (A")
                 (A') (A") (A') (A') (A") (A') (A") (A") (A') (A')
                 (A") (A') (A') (A") (A") (A") (A') (A') (A') (A')
                 (A') (A") (A') (A') (A') (A") (A") (A') (A') (A")
                 (A') (A") (A') (A") (A') (A') (A") (A') (A') (A")
                 (A') (A") (A') (A") (A') (A') (A') (A') (A') (A")
                 (A') (A") (A") (A") (A") (A') (A') (A') (A") (A')
                 (A") (A') (A') (A') (A") (A') (A") (A') (A') (A")
                 (A') (A") (A') (A') (A") (A') (A') (A') (A") (A')
                 (A") (A') (A') (A") (A') (A') (A") (A') (A') (A')
                 (A") (A') (A") (A") (A') (A") (A') (A') (A') (A")
                 (A') (A') (A') (A') (A') (A') (A') (A") (A') (A')
                 (A') (A") (A') (A") (A") (A') (A') (A') (A") (A')
                 (A') (A") (A") (A') (A') (A') (A") (A') (A') (A')
                 (A") (A') (A') (A') (A') (A") (A') (A") (A') (A')
                 (A') (A") (A") (A') (A") (A') (A') (A") (A') (A')
                 (A') (A') (A') (A') (A') (A') (A") (A') (A') (A")
                 (A') (A") (A') (A') (A") (A') (A")
 The electronic state of the initial guess is 1-A'.
 Requested convergence on RMS density matrix=1.00D-08 within 128 cycles.
 Requested convergence on MAX density matrix=1.00D-06.
 Requested convergence on             energy=1.00D-06.
 No special actions if energy rises.
 Inv3:  Mode=1 IEnd=    14785200.
 Iteration    1 A*A^-1 deviation from unit magnitude is 4.00D-15 for   2215.
 Iteration    1 A*A^-1 deviation from orthogonality  is 1.74D-15 for   2204   2040.
 Iteration    1 A^-1*A deviation from unit magnitude is 4.44D-15 for   2214.
 Iteration    1 A^-1*A deviation from orthogonality  is 1.75D-15 for    827    242.
 Error on total polarization charges =  0.01554
 SCF Done:  E(RM062X) =  -5594.65314565     A.U. after   14 cycles
            NFock= 14  Conv=0.89D-08     -V/T= 2.0002
 DoSCS=F DFT=T ScalE2(SS,OS)=  1.000000  1.000000
 Range of M.O.s used for correlation:     1   356
 NBasis=   357 NAE=    69 NBE=    69 NFC=     0 NFV=     0
 NROrb=    356 NOA=    69 NOB=    69 NVA=   287 NVB=   287

 **** Warning!!: The largest alpha MO coefficient is  0.14249477D+03

 Symmetrizing basis deriv contribution to polar:
 IMax=3 JMax=2 DiffMx= 0.00D+00
 G2DrvN: will do    21 centers at a time, making    1 passes.
 Calling FoFCou, ICntrl=  3107 FMM=F I1Cent=   0 AccDes= 0.00D+00.
 NEqPCM:  Using equilibrium solvation (IEInf=0, Eps=  10.1250, EpsInf=   2.0874)
 G2PCM: DoFxE=T DoFxN=T DoGrad=T DoDP/DQ/DG/TGxP=FFFF NFrqRd=   0 IEInf=0 SqF1=F DoCFld=F IF1Alg=4.
 End of G2Drv F.D. properties file   721 does not exist.
 End of G2Drv F.D. properties file   722 does not exist.
 End of G2Drv F.D. properties file   788 does not exist.
          IDoAtm=11111111111111111111
 NEqPCM:  Using equilibrium solvation (IEInf=0, Eps=  10.1250, EpsInf=   2.0874)
          Differentiating once with respect to electric field.
                with respect to dipole field.
          Differentiating once with respect to nuclear coordinates.
 CalDSu exits because no D1Ps are significant.
          There are    54 degrees of freedom in the 1st order CPHF.  IDoFFX=4 NUNeed=    54.
     54 vectors produced by pass  0 Test12= 3.67D-14 1.85D-09 XBig12= 6.76D+01 3.74D+00.
 AX will form    54 AO Fock derivatives at one time.
     54 vectors produced by pass  1 Test12= 3.67D-14 1.85D-09 XBig12= 8.50D+00 5.08D-01.
     54 vectors produced by pass  2 Test12= 3.67D-14 1.85D-09 XBig12= 1.12D-01 7.17D-02.
     54 vectors produced by pass  3 Test12= 3.67D-14 1.85D-09 XBig12= 9.40D-04 6.44D-03.
     54 vectors produced by pass  4 Test12= 3.67D-14 1.85D-09 XBig12= 4.92D-06 3.00D-04.
     54 vectors produced by pass  5 Test12= 3.67D-14 1.85D-09 XBig12= 2.73D-08 2.59D-05.
     42 vectors produced by pass  6 Test12= 3.67D-14 1.85D-09 XBig12= 9.36D-11 1.79D-06.
     12 vectors produced by pass  7 Test12= 3.67D-14 1.85D-09 XBig12= 3.74D-13 1.05D-07.
      3 vectors produced by pass  8 Test12= 3.67D-14 1.85D-09 XBig12= 1.17D-15 4.09D-09.
 InvSVY:  IOpt=1 It=  1 EMax= 5.33D-15
 Solved reduced A of dimension   381 with    54 vectors.
 Isotropic polarizability for W=    0.000000      123.69 Bohr**3.
 End of Minotr F.D. properties file   721 does not exist.
 End of Minotr F.D. properties file   722 does not exist.
 End of Minotr F.D. properties file   788 does not exist.

 **********************************************************************

            Population analysis using the SCF Density.

 **********************************************************************

 Orbital symmetries:
       Occupied  (A") (A') (A") (A') (A") (A') (A') (A') (A") (A")
                 (A') (A') (A') (A') (A') (A') (A') (A') (A') (A")
                 (A') (A") (A') (A') (A") (A') (A") (A") (A') (A')
                 (A") (A') (A") (A') (A") (A') (A") (A') (A') (A')
                 (A") (A') (A') (A') (A') (A') (A') (A') (A") (A')
                 (A') (A") (A') (A') (A") (A') (A') (A') (A") (A')
                 (A') (A') (A") (A') (A") (A') (A") (A") (A")
       Virtual   (A') (A') (A') (A') (A") (A') (A") (A") (A') (A')
                 (A") (A') (A") (A") (A') (A') (A') (A") (A') (A')
                 (A") (A") (A') (A') (A') (A") (A') (A') (A') (A')
                 (A') (A") (A') (A") (A') (A") (A') (A") (A') (A')
                 (A') (A") (A') (A') (A') (A") (A') (A') (A') (A")
                 (A') (A') (A") (A') (A") (A') (A') (A') (A') (A')
                 (A') (A') (A") (A') (A') (A') (A") (A') (A') (A")
                 (A') (A') (A') (A') (A") (A') (A') (A") (A') (A')
                 (A') (A") (A') (A") (A') (A') (A") (A') (A") (A')
                 (A") (A') (A") (A') (A") (A') (A') (A") (A") (A')
                 (A") (A') (A') (A') (A") (A') (A') (A') (A") (A')
                 (A') (A') (A') (A') (A') (A') (A") (A') (A') (A')
                 (A') (A") (A') (A') (A") (A") (A') (A') (A") (A")
                 (A') (A') (A") (A") (A") (A") (A') (A') (A') (A')
                 (A') (A") (A') (A') (A") (A') (A') (A') (A") (A')
                 (A") (A") (A") (A') (A') (A") (A') (A") (A') (A')
                 (A') (A") (A') (A') (A") (A') (A') (A') (A") (A')
                 (A") (A') (A") (A") (A') (A") (A') (A") (A') (A')
                 (A") (A') (A') (A') (A") (A') (A') (A") (A') (A")
                 (A') (A") (A') (A') (A") (A') (A') (A') (A') (A")
                 (A') (A') (A') (A') (A") (A') (A') (A') (A") (A")
                 (A') (A") (A') (A") (A") (A") (A') (A') (A') (A")
                 (A') (A') (A') (A') (A') (A") (A') (A') (A') (A')
                 (A') (A") (A') (A") (A") (A') (A') (A') (A') (A")
                 (A') (A') (A') (A") (A") (A') (A') (A") (A') (A')
                 (A") (A') (A') (A') (A') (A") (A') (A") (A') (A')
                 (A') (A") (A") (A') (A") (A') (A') (A") (A') (A')
                 (A') (A') (A') (A') (A') (A') (A") (A') (A') (A")
                 (A') (A") (A') (A') (A") (A') (A")
 The electronic state is 1-A'.
 Alpha  occ. eigenvalues -- -485.32781-485.32781 -63.33128 -63.33128 -57.15677
 Alpha  occ. eigenvalues --  -57.15677 -57.15495 -57.15495 -57.15495 -57.15495
 Alpha  occ. eigenvalues --  -25.25310 -19.63838 -10.61542 -10.61332 -10.52450
 Alpha  occ. eigenvalues --  -10.52447 -10.52186 -10.52174 -10.51464  -9.03063
 Alpha  occ. eigenvalues --   -9.03063  -6.86668  -6.86668  -6.84484  -6.84484
 Alpha  occ. eigenvalues --   -6.84484  -6.84484  -2.90373  -2.90373  -2.88569
 Alpha  occ. eigenvalues --   -2.88569  -2.88568  -2.88567  -2.87332  -2.87332
 Alpha  occ. eigenvalues --   -2.87332  -2.87332  -1.35910  -1.19036  -1.03184
 Alpha  occ. eigenvalues --   -0.99476  -0.99430  -0.89359  -0.88472  -0.74944
 Alpha  occ. eigenvalues --   -0.73819  -0.72379  -0.66435  -0.60453  -0.59122
 Alpha  occ. eigenvalues --   -0.58794  -0.58002  -0.54743  -0.53915  -0.53817
 Alpha  occ. eigenvalues --   -0.53458  -0.52558  -0.50064  -0.47785  -0.47437
 Alpha  occ. eigenvalues --   -0.44491  -0.42088  -0.37796  -0.37766  -0.37761
 Alpha  occ. eigenvalues --   -0.37705  -0.34945  -0.33879  -0.32796
 Alpha virt. eigenvalues --   -0.00478  -0.00142   0.00902   0.01499   0.01891
 Alpha virt. eigenvalues --    0.02395   0.02492   0.03064   0.03625   0.03896
 Alpha virt. eigenvalues --    0.04035   0.04643   0.05649   0.05868   0.06110
 Alpha virt. eigenvalues --    0.06945   0.07276   0.07493   0.08437   0.08622
 Alpha virt. eigenvalues --    0.10591   0.10624   0.10949   0.11897   0.12776
 Alpha virt. eigenvalues --    0.12777   0.13115   0.13545   0.13691   0.14224
 Alpha virt. eigenvalues --    0.14295   0.14818   0.15938   0.15942   0.16096
 Alpha virt. eigenvalues --    0.16492   0.17652   0.18041   0.18210   0.18526
 Alpha virt. eigenvalues --    0.18895   0.19265   0.20126   0.20863   0.21987
 Alpha virt. eigenvalues --    0.22561   0.22827   0.23285   0.24028   0.26318
 Alpha virt. eigenvalues --    0.26489   0.27168   0.28343   0.30092   0.31501
 Alpha virt. eigenvalues --    0.32014   0.32263   0.33317   0.35181   0.36451
 Alpha virt. eigenvalues --    0.36683   0.38429   0.38923   0.40647   0.40988
 Alpha virt. eigenvalues --    0.41564   0.41862   0.42778   0.43687   0.43840
 Alpha virt. eigenvalues --    0.45401   0.45507   0.46348   0.46519   0.46680
 Alpha virt. eigenvalues --    0.47106   0.52772   0.53990   0.54896   0.55611
 Alpha virt. eigenvalues --    0.57239   0.58476   0.58594   0.59159   0.59577
 Alpha virt. eigenvalues --    0.60358   0.61934   0.62910   0.63083   0.63666
 Alpha virt. eigenvalues --    0.64939   0.65353   0.66094   0.66153   0.67192
 Alpha virt. eigenvalues --    0.67932   0.68462   0.68781   0.70128   0.70253
 Alpha virt. eigenvalues --    0.71423   0.72466   0.73155   0.75794   0.76181
 Alpha virt. eigenvalues --    0.77707   0.81535   0.81665   0.84266   0.85458
 Alpha virt. eigenvalues --    0.85814   0.89111   0.89992   0.90059   0.94400
 Alpha virt. eigenvalues --    0.95582   0.97630   1.00767   1.01466   1.02242
 Alpha virt. eigenvalues --    1.02416   1.03377   1.06024   1.06907   1.07935
 Alpha virt. eigenvalues --    1.08310   1.11536   1.12101   1.15241   1.16123
 Alpha virt. eigenvalues --    1.17187   1.18184   1.21145   1.23983   1.27894
 Alpha virt. eigenvalues --    1.28521   1.31775   1.35188   1.35333   1.41710
 Alpha virt. eigenvalues --    1.52297   1.52633   1.53806   1.55556   1.58089
 Alpha virt. eigenvalues --    1.58883   1.61711   1.64741   1.64843   1.65151
 Alpha virt. eigenvalues --    1.67487   1.67621   1.68457   1.69555   1.70466
 Alpha virt. eigenvalues --    1.73633   1.74915   1.75586   1.76508   1.76745
 Alpha virt. eigenvalues --    1.82370   1.82382   1.84872   1.85702   1.85706
 Alpha virt. eigenvalues --    1.90668   1.94412   1.94797   1.97367   1.99506
 Alpha virt. eigenvalues --    2.01079   2.02675   2.03243   2.04390   2.04628
 Alpha virt. eigenvalues --    2.05338   2.05538   2.05709   2.06600   2.07627
 Alpha virt. eigenvalues --    2.12549   2.17226   2.17422   2.17981   2.19354
 Alpha virt. eigenvalues --    2.20256   2.21661   2.21899   2.31531   2.37056
 Alpha virt. eigenvalues --    2.40811   2.46566   2.49391   2.50787   2.50963
 Alpha virt. eigenvalues --    2.58244   2.64637   2.67301   2.70867   2.73059
 Alpha virt. eigenvalues --    2.75488   2.77239   2.78557   2.80053   2.80510
 Alpha virt. eigenvalues --    2.81405   2.86621   2.86729   2.88185   2.89817
 Alpha virt. eigenvalues --    2.91104   2.96490   2.98378   2.98558   2.98829
 Alpha virt. eigenvalues --    2.99233   3.03973   3.08791   3.11968   3.24621
 Alpha virt. eigenvalues --    3.27334   3.35818   3.39827   3.41932   3.55602
 Alpha virt. eigenvalues --    3.60300   3.61670   3.65167   3.75207   3.76916
 Alpha virt. eigenvalues --    3.87691   3.88538   3.99810   4.00808   4.04749
 Alpha virt. eigenvalues --    4.09170   4.14172   4.17755   4.19336   4.24806
 Alpha virt. eigenvalues --    4.25856   4.26065   4.27082   4.27756   4.27834
 Alpha virt. eigenvalues --    4.28591   4.30656   4.32565   4.34054   4.39011
 Alpha virt. eigenvalues --    4.90579   4.91043   4.95679   4.96287   5.11680
 Alpha virt. eigenvalues --    5.25018   5.83449   6.57980   6.62130   6.91653
 Alpha virt. eigenvalues --    6.99805   7.02207   7.62021   7.63957   7.65546
 Alpha virt. eigenvalues --    7.67056   7.82117   7.86879  23.73664  24.17520
 Alpha virt. eigenvalues --   24.27239  24.31717  24.54351  24.57415  24.73012
 Alpha virt. eigenvalues --   48.51897  48.53496  50.07412  66.98418 290.77586
 Alpha virt. eigenvalues --  290.79617 290.81392 290.82775 291.01549 291.05963
 Alpha virt. eigenvalues -- 1021.143851021.16411
          Condensed to atoms (all electrons):
               1          2          3          4          5          6
     1  C   13.479322  -1.325614  -2.216913  -0.374416  -2.217493  -1.324937
     2  C   -1.325614  14.196866   2.190064  -0.885525  -1.023498  -7.472449
     3  C   -2.216913   2.190064   6.674799   0.519878  -0.293025  -1.026933
     4  C   -0.374416  -0.885525   0.519878   7.209771   0.521090  -0.875824
     5  C   -2.217493  -1.023498  -0.293025   0.521090   6.675259   2.186357
     6  C   -1.324937  -7.472449  -1.026933  -0.875824   2.186357  14.196579
     7  F    0.760646  -0.298606  -0.080036   0.022549  -0.080220  -0.298279
     8  H   -0.110308   0.551559  -0.060511  -0.035390   0.018717  -0.033308
     9  H    0.000739  -0.036346   0.421277  -0.122170   0.005543   0.057897
    10  H    0.048850  -0.027283  -0.080161   0.534686  -0.080306  -0.026944
    11  H    0.001139   0.058255   0.005482  -0.122313   0.421287  -0.036888
    12  H   -0.109514  -0.032382   0.018794  -0.035626  -0.061066   0.550477
    13  O    0.075916  -0.024899  -0.003184  -0.000404  -0.003172  -0.025020
    14  C    0.009746  -0.003375  -0.000773   0.000702  -0.000773  -0.003345
    15  H   -0.001092   0.000243   0.000072  -0.000094   0.000070   0.000226
    16  H   -0.001092   0.000243   0.000072  -0.000094   0.000070   0.000226
    17  H   -0.116272   0.028932   0.021423  -0.024521   0.020805   0.024019
    18  Br   0.262641  -0.067567  -0.053497   0.042085  -0.052927  -0.063212
    19  H   -0.116272   0.028932   0.021423  -0.024521   0.020805   0.024019
    20  Br   0.262641  -0.067567  -0.053497   0.042085  -0.052927  -0.063212
               7          8          9         10         11         12
     1  C    0.760646  -0.110308   0.000739   0.048850   0.001139  -0.109514
     2  C   -0.298606   0.551559  -0.036346  -0.027283   0.058255  -0.032382
     3  C   -0.080036  -0.060511   0.421277  -0.080161   0.005482   0.018794
     4  C    0.022549  -0.035390  -0.122170   0.534686  -0.122313  -0.035626
     5  C   -0.080220   0.018717   0.005543  -0.080306   0.421287  -0.061066
     6  C   -0.298279  -0.033308   0.057897  -0.026944  -0.036888   0.550477
     7  F    9.191932  -0.012553  -0.002308   0.001874  -0.002296  -0.012579
     8  H   -0.012553   0.480966  -0.008118  -0.000281   0.002616   0.000836
     9  H   -0.002308  -0.008118   0.474317  -0.015821   0.002047   0.002622
    10  H    0.001874  -0.000281  -0.015821   0.486446  -0.015827  -0.000280
    11  H   -0.002296   0.002616   0.002047  -0.015827   0.474322  -0.008139
    12  H   -0.012579   0.000836   0.002622  -0.000280  -0.008139   0.481117
    13  O    0.000749   0.001458  -0.000010   0.000020  -0.000010   0.001465
    14  C    0.002929  -0.000208  -0.000063   0.000024  -0.000063  -0.000206
    15  H   -0.000018  -0.000029   0.000008  -0.000003   0.000008  -0.000028
    16  H   -0.000018  -0.000029   0.000008  -0.000003   0.000008  -0.000028
    17  H   -0.044844   0.008179   0.003532  -0.002435   0.003545   0.008125
    18  Br   0.015021  -0.006020  -0.004706   0.003041  -0.004716  -0.005977
    19  H   -0.044844   0.008179   0.003532  -0.002435   0.003545   0.008125
    20  Br   0.015021  -0.006020  -0.004706   0.003041  -0.004716  -0.005977
              13         14         15         16         17         18
     1  C    0.075916   0.009746  -0.001092  -0.001092  -0.116272   0.262641
     2  C   -0.024899  -0.003375   0.000243   0.000243   0.028932  -0.067567
     3  C   -0.003184  -0.000773   0.000072   0.000072   0.021423  -0.053497
     4  C   -0.000404   0.000702  -0.000094  -0.000094  -0.024521   0.042085
     5  C   -0.003172  -0.000773   0.000070   0.000070   0.020805  -0.052927
     6  C   -0.025020  -0.003345   0.000226   0.000226   0.024019  -0.063212
     7  F    0.000749   0.002929  -0.000018  -0.000018  -0.044844   0.015021
     8  H    0.001458  -0.000208  -0.000029  -0.000029   0.008179  -0.006020
     9  H   -0.000010  -0.000063   0.000008   0.000008   0.003532  -0.004706
    10  H    0.000020   0.000024  -0.000003  -0.000003  -0.002435   0.003041
    11  H   -0.000010  -0.000063   0.000008   0.000008   0.003545  -0.004716
    12  H    0.001465  -0.000206  -0.000028  -0.000028   0.008125  -0.005977
    13  O    8.209191   0.254600  -0.088322  -0.088322   0.019764  -0.017762
    14  C    0.254600   4.822855   0.414349   0.414349  -0.011977   0.006486
    15  H   -0.088322   0.414349   0.674302  -0.124529   0.002422  -0.000423
    16  H   -0.088322   0.414349  -0.124529   0.674302   0.001129  -0.000783
    17  H    0.019764  -0.011977   0.002422   0.001129   1.167365   0.010234
    18  Br  -0.017762   0.006486  -0.000423  -0.000783   0.010234  34.789677
    19  H    0.019764  -0.011977   0.001129   0.002422   0.026724  -0.017399
    20  Br  -0.017762   0.006486  -0.000783  -0.000423  -0.017399   0.011221
              19         20
     1  C   -0.116272   0.262641
     2  C    0.028932  -0.067567
     3  C    0.021423  -0.053497
     4  C   -0.024521   0.042085
     5  C    0.020805  -0.052927
     6  C    0.024019  -0.063212
     7  F   -0.044844   0.015021
     8  H    0.008179  -0.006020
     9  H    0.003532  -0.004706
    10  H   -0.002435   0.003041
    11  H    0.003545  -0.004716
    12  H    0.008125  -0.005977
    13  O    0.019764  -0.017762
    14  C   -0.011977   0.006486
    15  H    0.001129  -0.000783
    16  H    0.002422  -0.000423
    17  H    0.026724  -0.017399
    18  Br  -0.017399   0.011221
    19  H    1.167365   0.010234
    20  Br   0.010234  34.789677
 Mulliken charges:
               1
     1  C   -0.987718
     2  C    0.210017
     3  C   -0.004756
     4  C   -0.391949
     5  C   -0.004596
     6  C    0.210551
     7  F   -0.134119
     8  H    0.200268
     9  H    0.222727
    10  H    0.173800
    11  H    0.222714
    12  H    0.200242
    13  O   -0.314064
    14  C    0.100233
    15  H    0.122492
    16  H    0.122492
    17  H   -0.128749
    18  Br   0.154582
    19  H   -0.128749
    20  Br   0.154582
 Sum of Mulliken charges =  -0.00000
 Mulliken charges with hydrogens summed into heavy atoms:
               1
     1  C   -0.987718
     2  C    0.410286
     3  C    0.217971
     4  C   -0.218149
     5  C    0.218117
     6  C    0.410793
     7  F   -0.134119
    13  O   -0.314064
    14  C    0.345218
    18  Br   0.025833
    20  Br   0.025833
 APT charges:
               1
     1  C    0.756582
     2  C   -0.183437
     3  C    0.006986
     4  C   -0.081435
     5  C    0.007007
     6  C   -0.183488
     7  F   -0.714728
     8  H    0.094687
     9  H    0.063827
    10  H    0.060637
    11  H    0.063827
    12  H    0.094685
    13  O   -0.709529
    14  C    0.693559
    15  H    0.001702
    16  H    0.001702
    17  H    0.170428
    18  Br  -0.156720
    19  H    0.170428
    20  Br  -0.156720
 Sum of APT charges =  -0.00000
 APT charges with hydrogens summed into heavy atoms:
               1
     1  C    0.756582
     2  C   -0.088750
     3  C    0.070813
     4  C   -0.020798
     5  C    0.070834
     6  C   -0.088803
     7  F   -0.714728
    13  O   -0.709529
    14  C    0.696963
    18  Br   0.013708
    20  Br   0.013708
 Electronic spatial extent (au):  <R**2>=           4813.9149
 Charge=             -0.0000 electrons
 Dipole moment (field-independent basis, Debye):
    X=              0.0083    Y=              0.7678    Z=             -0.0000  Tot=              0.7678
 Quadrupole moment (field-independent basis, Debye-Ang):
   XX=            -83.8600   YY=            -58.0881   ZZ=            -99.5565
   XY=              0.0487   XZ=              0.0000   YZ=              0.0000
 Traceless Quadrupole moment (field-independent basis, Debye-Ang):
   XX=             -3.3584   YY=             22.4134   ZZ=            -19.0550
   XY=              0.0487   XZ=              0.0000   YZ=              0.0000
 Octapole moment (field-independent basis, Debye-Ang**2):
  XXX=             -0.0371  YYY=            138.0521  ZZZ=             -0.0000  XYY=              0.2208
  XXY=              5.4710  XXZ=              0.0000  XZZ=              0.0034  YZZ=             21.7796
  YYZ=              0.0000  XYZ=             -0.0000
 Hexadecapole moment (field-independent basis, Debye-Ang**3):
 XXXX=           -284.2877 YYYY=          -1779.5477 ZZZZ=          -2335.8638 XXXY=             -0.9345
 XXXZ=              0.0000 YYYX=              0.1892 YYYZ=              0.0000 ZZZX=              0.0000
 ZZZY=              0.0000 XXYY=           -446.6322 XXZZ=           -457.9189 YYZZ=           -849.0446
 XXYZ=             -0.0000 YYXZ=             -0.0000 ZZXY=             -0.3038
 N-N= 1.146358803800D+03 E-N=-1.565089636748D+04  KE= 5.593578688597D+03
 Symmetry A'   KE= 3.000351322896D+03
 Symmetry A"   KE= 2.593227365701D+03
  Exact polarizability: 126.051   0.040 149.786  -0.000   0.000  95.238
 Approx polarizability: 127.826   0.038 146.514  -0.000   0.000  95.238
 D2PCM: PCM CHGder 2nd derivatives, FixD1E=F FixD2E=F DoIter=F DoCFld=F I1PDM=0
 Calling FoFJK, ICntrl=    100127 FMM=F ISym2X=1 I1Cent= 0 IOpClX= 0 NMat=1 NMatS=1 NMatT=0.
 ***** Axes restored to original set *****
 -------------------------------------------------------------------
 Center     Atomic                   Forces (Hartrees/Bohr)
 Number     Number              X              Y              Z
 -------------------------------------------------------------------
      1        6          -0.087456301   -0.000000000   -0.050490796
      2        6          -0.053731108   -0.000000000    0.015051478
      3        6           0.002612909   -0.000000000    0.037433082
      4        6           0.039260408    0.000000000    0.022666878
      5        6           0.033724289    0.000000000   -0.016453491
      6        6          -0.013831608    0.000000000   -0.054058828
      7        9           0.023221451   -0.000000000    0.013409962
      8        1          -0.065686754    0.000000000    0.035978263
      9        1          -0.001697916    0.000000000    0.073794256
     10        1           0.064284192    0.000000000    0.037114508
     11        1           0.063058763    0.000000000   -0.038367547
     12        1          -0.001685256    0.000000000   -0.074875514
     13        8           0.016047170   -0.000000000    0.009260774
     14        6           0.061196842   -0.000000000    0.035663009
     15        1          -0.039161695    0.071519838   -0.022774420
     16        1          -0.039161695   -0.071519838   -0.022774420
     17        1          -0.178980872   -1.168998136   -0.103336302
     18       35           0.178484025    1.169020914    0.103047705
     19        1          -0.178980872    1.168998136   -0.103336302
     20       35           0.178484025   -1.169020914    0.103047705
 -------------------------------------------------------------------
 Cartesian Forces:  Max     1.169020914 RMS     0.308384086
 -----------------------------------------------------------------------------------------------
                       Internal Coordinate Forces (Hartree/Bohr or radian)
  Cent   Atom   N1       Length/X         N2         Alpha/Y        N3         Beta/Z          J
 -----------------------------------------------------------------------------------------------
      1  C 
      2  C        1   0.037160(     1)
      3  C        2   0.153347(     2)      1   0.161301(    20)
      4  C        3   0.222038(     3)      2   0.414958(    21)      1   0.000000(    38)     0
      5  C        4   0.184878(     4)      3   0.451684(    22)      2   0.000000(    39)     0
      6  C        5   0.079028(     5)      4   0.253634(    23)      3   0.000000(    40)     0
      7  F        1  -0.024419(     6)      2   0.000006(    24)      3   0.000000(    41)     0
      8  H        2   0.074876(     7)      3   0.003185(    25)      4   0.000000(    42)     0
      9  H        3   0.073794(     8)      4   0.003209(    26)      5   0.000000(    43)     0
     10  H        4   0.074229(     9)      5   0.000000(    27)      6   0.000000(    44)     0
     11  H        5   0.073794(    10)      6  -0.003209(    28)      1   0.000000(    45)     0
     12  H        6   0.074876(    11)      1  -0.003185(    29)      2   0.000000(    46)     0
     13  O        7   0.001247(    12)      1   0.000002(    30)      3  -0.000000(    47)     0
     14  C       13   0.019775(    13)      1   0.000104(    31)      2  -0.000000(    48)     0
     15  H       14   0.084589(    14)      1   0.006563(    32)      2   0.000118(    49)     0
     16  H       14   0.084589(    15)      1   0.006563(    33)      2  -0.000118(    50)     0
     17  H        7   0.000122(    16)      1   0.002500(    34)      2   0.000007(    51)     0
     18  Br      17   1.187049(    17)      7   0.000058(    35)      1   0.000000(    52)     0
     19  H        7   0.000122(    18)      1   0.002500(    36)      2  -0.000007(    53)     0
     20  Br      19   1.187049(    19)      7   0.000058(    37)      1  -0.000000(    54)     0
 -----------------------------------------------------------------------------------------------
 Internal  Forces:  Max     1.187048976 RMS     0.252484048

 GradGradGradGradGradGradGradGradGradGradGradGradGradGradGradGradGradGrad
 Berny optimization.
 Search for a local minimum.
 Step number   1 out of a maximum of   29
 All quantities printed in internal units (Hartrees-Bohrs-Radians)
 Second derivative matrix not updated -- analytic derivatives used.
 The second derivative matrix:
                          d1        d2        d3        d4        d5
           d1           0.89162
           d2          -0.02949   1.00881
           d3          -0.36433   0.41472   1.58364
           d4          -0.15348   0.02408   0.40230   0.99900
           d5           0.05467  -0.18125  -0.37921  -0.01376   0.95844
           d6           0.04579   0.04719   0.02874  -0.01705  -0.04439
           d7           0.00105   0.00213  -0.00045   0.00254   0.00229
           d8          -0.00058   0.00408   0.00480  -0.00020  -0.00038
           d9          -0.00090  -0.00094   0.00424   0.00514   0.00086
           d10          0.00314   0.00218  -0.00078   0.00166   0.00152
           d11         -0.01052  -0.00717   0.00359   0.01007   0.01160
           d12          0.00059   0.00070   0.00041  -0.00018  -0.00048
           d13         -0.00006  -0.00008  -0.00006  -0.00000   0.00003
           d14          0.00005   0.00006   0.00004  -0.00001  -0.00004
           d15          0.00005   0.00006   0.00004  -0.00001  -0.00004
           d16         -0.00050  -0.00067  -0.00030   0.00021   0.00034
           d17          0.00002   0.00000   0.00007   0.00005  -0.00004
           d18         -0.00050  -0.00067  -0.00030   0.00021   0.00034
           d19          0.00002   0.00000   0.00007   0.00005  -0.00004
                          d6        d7        d8        d9        d10
           d6           0.31065
           d7          -0.00002   0.57519
           d8           0.00093   0.00038   0.57441
           d9           0.00035   0.00017   0.00044   0.57400
           d10          0.00093   0.00010   0.00021   0.00044   0.57441
           d11         -0.00002   0.00008   0.00010   0.00017   0.00038
           d12         -0.00118  -0.00001   0.00004   0.00002   0.00004
           d13          0.00033   0.00001  -0.00001  -0.00001  -0.00001
           d14         -0.00014  -0.00000   0.00000   0.00000   0.00000
           d15         -0.00014  -0.00000   0.00000   0.00000   0.00000
           d16          0.00242   0.00008  -0.00004  -0.00002  -0.00004
           d17          0.00009   0.00004   0.00000   0.00000   0.00000
           d18          0.00242   0.00008  -0.00004  -0.00002  -0.00004
           d19          0.00009   0.00004   0.00000   0.00000   0.00000
                          d11       d12       d13       d14       d15
           d11          0.57519
           d12         -0.00001   0.00473
           d13          0.00001   0.00032   0.95653
           d14         -0.00000   0.00015   0.03204   0.57456
           d15         -0.00000   0.00015   0.03204   0.00160   0.57456
           d16          0.00008  -0.00039  -0.00007  -0.00001  -0.00000
           d17          0.00004  -0.00009  -0.00011   0.00003   0.00002
           d18          0.00008  -0.00039  -0.00007  -0.00000  -0.00001
           d19          0.00004  -0.00009  -0.00011   0.00002   0.00003
                          d16       d17       d18       d19
           d16          0.00831
           d17          0.00387   3.25661
           d18          0.00001  -0.00003   0.00831
           d19         -0.00003  -0.00001   0.00387   3.25661
 ITU=  0
     Eigenvalues ---    0.00464   0.00830   0.00835   0.30096   0.57083
     Eigenvalues ---    0.57296   0.57347   0.57384   0.57423   0.57476
     Eigenvalues ---    0.57541   0.58365   0.76958   0.81438   0.96186
     Eigenvalues ---    1.08963   2.19548   3.25661   3.25662
 RFO step:  Lambda=-7.82672974D-01 EMin= 4.64298798D-03
 Linear search not attempted -- first point.
 Maximum step size (   0.300) exceeded in Quadratic search.
    -- Step size scaled by   0.635
 Variable       Old X    -DE/DX   Delta X   Delta X   Delta X     New X
                                 (Linear)    (Quad)   (Total)
    d1        2.45664   0.03716   0.00000   0.03087   0.03087   2.48752
    d2        2.45664   0.15335   0.00000   0.04653   0.04653   2.50318
    d3        2.45664   0.22204   0.00000   0.05382   0.05382   2.51046
    d4        2.45664   0.18488   0.00000   0.05556   0.05556   2.51221
    d5        2.45664   0.07903   0.00000   0.04413   0.04413   2.50078
    d6        2.64562  -0.02442   0.00000  -0.01632  -0.01632   2.62929
    d7        1.88973   0.07488   0.00000   0.03472   0.03472   1.92445
    d8        1.88973   0.07379   0.00000   0.03421   0.03421   1.92394
    d9        1.88973   0.07423   0.00000   0.03436   0.03436   1.92408
   d10        1.88973   0.07379   0.00000   0.03427   0.03427   1.92400
   d11        1.88973   0.07488   0.00000   0.03453   0.03453   1.92426
   d12        5.29123   0.00125   0.00000   0.00095   0.00095   5.29218
   d13        2.26767   0.01977   0.00000   0.00580   0.00580   2.27347
   d14        1.88973   0.08459   0.00000   0.03937   0.03937   1.92910
   d15        1.88973   0.08459   0.00000   0.03937   0.03937   1.92910
   d16        4.34637   0.00012   0.00000  -0.00071  -0.00071   4.34566
   d17        1.70075   1.18705   0.00000   0.18658   0.18658   1.88733
   d18        4.34637   0.00012   0.00000  -0.00071  -0.00071   4.34566
   d19        1.70075   1.18705   0.00000   0.18658   0.18658   1.88733
         Item               Value     Threshold  Converged?
 Maximum Force            1.187049     0.000450     NO 
 RMS     Force            0.395748     0.000300     NO 
 Maximum Displacement     0.186580     0.001800     NO 
 RMS     Displacement     0.068825     0.001200     NO 
 Predicted change in Energy=-3.743914D-01
 GradGradGradGradGradGradGradGradGradGradGradGradGradGradGradGradGradGrad

 ---------------------------------------------------------------------------------------------------
                            Z-MATRIX (ANGSTROMS AND DEGREES)
   CD    Cent   Atom    N1       Length/X        N2       Alpha/Y        N3        Beta/Z          J
 ---------------------------------------------------------------------------------------------------
      1      1  C 
      2      2  C        1   1.316338(     1)
      3      3  C        2   1.324625(     2)      1  120.000(    20)
      4      4  C        3   1.328479(     3)      2  120.000(    21)      1    0.000(    38)      0
      5      5  C        4   1.329402(     4)      3  120.000(    22)      2    0.000(    39)      0
      6      6  C        5   1.323353(     5)      4  120.000(    23)      3    0.000(    40)      0
      7      7  F        1   1.391363(     6)      2  120.000(    24)      3  180.000(    41)      0
      8      8  H        2   1.018374(     7)      3  120.000(    25)      4  180.000(    42)      0
      9      9  H        3   1.018103(     8)      4  120.000(    26)      5  180.000(    43)      0
     10     10  H        4   1.018181(     9)      5  120.000(    27)      6  180.000(    44)      0
     11     11  H        5   1.018137(    10)      6  120.000(    28)      1  180.000(    45)      0
     12     12  H        6   1.018274(    11)      1  120.000(    29)      2  180.000(    46)      0
     13     13  O        7   2.800502(    12)      1  179.900(    30)      3  180.000(    47)      0
     14     14  C       13   1.203069(    13)      1  179.900(    31)      2  180.000(    48)      0
     15     15  H       14   1.020836(    14)      1  120.000(    32)      2   90.000(    49)      0
     16     16  H       14   1.020836(    15)      1  120.000(    33)      2  -90.000(    50)      0
     17     17  H        7   2.299623(    16)      1  100.000(    34)      2   90.000(    51)      0
     18     18  Br      17   0.998734(    17)      7  160.000(    35)      1    0.000(    52)      0
     19     19  H        7   2.299623(    18)      1  100.000(    36)      2  -90.000(    53)      0
     20     20  Br      19   0.998734(    19)      7  160.000(    37)      1    0.000(    54)      0
 ---------------------------------------------------------------------------------------------------
                         Z-Matrix orientation:                         
 ---------------------------------------------------------------------
 Center     Atomic      Atomic             Coordinates (Angstroms)
 Number     Number       Type             X           Y           Z
 ---------------------------------------------------------------------
      1          6           0        0.000000    0.000000    0.000000
      2          6           0        0.000000    0.000000    1.316338
      3          6           0        1.147159    0.000000    1.978651
      4          6           0        2.297656    0.000000    1.314411
      5          6           0        2.297656    0.000000   -0.014991
      6          6           0        1.151598    0.000000   -0.676668
      7          9           0       -1.204955   -0.000000   -0.695681
      8          1           0       -0.881937   -0.000000    1.825525
      9          1           0        1.147159   -0.000000    2.996754
     10          1           0        3.179427   -0.000000    1.823502
     11          1           0        3.179388   -0.000000   -0.524060
     12          1           0        1.143813   -0.000000   -1.694912
     13          8           0       -3.627814   -0.000000   -2.100163
     14          6           0       -4.667946   -0.000000   -2.704728
     15          1           0       -5.109584    0.884070   -2.960625
     16          1           0       -5.109584   -0.884070   -2.960625
     17          1           0       -1.550781    2.264686   -0.895344
     18         35           0       -1.400588    3.248247   -0.808630
     19          1           0       -1.550781   -2.264686   -0.895344
     20         35           0       -1.400588   -3.248247   -0.808630
 ---------------------------------------------------------------------
                    Distance matrix (angstroms):
                    1          2          3          4          5
     1  C    0.000000
     2  C    1.316338   0.000000
     3  C    2.287145   1.324625   0.000000
     4  C    2.647055   2.297657   1.328479   0.000000
     5  C    2.297705   2.655496   2.301793   1.329402   0.000000
     6  C    1.335686   2.301793   2.655322   2.297356   1.323353
     7  F    1.391363   2.345238   3.561530   4.038410   3.568140
     8  H    2.027401   1.018374   2.034866   3.220412   3.673869
     9  H    3.208817   2.034642   1.018103   2.038116   3.224011
    10  H    3.665230   3.219622   2.038181   1.018181   2.039013
    11  H    3.222289   3.673632   3.223897   2.038977   1.018137
    12  H    2.044758   3.221170   3.673564   3.222945   2.038010
    13  O    4.191863   4.983324   6.279896   6.838897   6.281651
    14  C    5.394931   6.161063   7.466558   8.041958   7.466880
    15  H    5.971158   6.721744   8.020278   8.597948   8.020320
    16  H    5.971158   6.721744   8.020278   8.597948   8.020320
    17  H    2.887103   3.524949   4.546155   4.982197   4.551296
    18  Br   3.628586   4.126529   4.981070   5.360543   4.985777
    19  H    2.887103   3.524949   4.546155   4.982197   4.551296
    20  Br   3.628586   4.126529   4.981070   5.360543   4.985777
                    6          7          8          9         10
     6  C    0.000000
     7  F    2.356630   0.000000
     8  H    3.224320   2.541815   0.000000
     9  H    3.673424   4.377958   2.342863   0.000000
    10  H    3.219151   5.056588   4.061364   2.346621   0.000000
    11  H    2.033524   4.387701   4.692005   4.065228   2.347561
    12  H    1.018274   2.552484   4.061667   4.691666   4.064844
    13  O    4.986895   2.800502   4.790706   6.984191   7.857078
    14  C    6.162802   4.003571   5.903987   8.143853   9.060140
    15  H    6.723127   4.599747   6.446844   8.684398   9.611303
    16  H    6.723127   4.599747   6.446844   8.684398   9.611303
    17  H    3.532630   2.299623   3.602677   5.249391   5.907266
    18  Br   4.133059   3.256092   4.214128   5.614540   6.201270
    19  H    3.532630   2.299623   3.602677   5.249391   5.907266
    20  Br   4.133059   3.256092   4.214128   5.614540   6.201270
                   11         12         13         14         15
    11  H    0.000000
    12  H    2.348289   0.000000
    13  O    6.987281   4.788805   0.000000
    14  C    8.144690   5.898837   1.203069   0.000000
    15  H    8.684785   6.441163   1.928112   1.020836   0.000000
    16  H    8.684785   6.441163   1.928112   1.020836   1.768140
    17  H    5.257486   3.609564   3.300675   4.256688   4.340111
    18  Br   5.622123   4.220258   4.144840   4.982161   4.896638
    19  H    5.257486   3.609564   3.300675   4.256688   5.181228
    20  Br   5.622123   4.220258   4.144840   4.982161   5.955147
                   16         17         18         19         20
    16  H    0.000000
    17  H    5.181228   0.000000
    18  Br   5.955147   0.998734   0.000000
    19  H    4.340111   4.529372   5.515660   0.000000
    20  Br   4.896638   5.515660   6.496494   0.998734   0.000000
 Stoichiometry    C7H9Br2FO
 Framework group  CS[SG(C7H5FO),X(H4Br2)]
 Deg. of freedom    34
 Full point group                 CS      NOp   2
 Largest Abelian subgroup         CS      NOp   2
 Largest concise Abelian subgroup CS      NOp   2
                         Standard orientation:                         
 ---------------------------------------------------------------------
 Center     Atomic      Atomic             Coordinates (Angstroms)
 Number     Number       Type             X           Y           Z
 ---------------------------------------------------------------------
      1          6           0       -0.003500   -1.090656    0.000000
      2          6           0       -1.143483   -1.748825    0.000000
      3          6           0       -1.143483   -3.073450    0.000000
      4          6           0        0.007014   -3.737690    0.000000
      5          6           0        1.158310   -3.072989    0.000000
      6          6           0        1.158310   -1.749635    0.000000
      7          9           0       -0.003500    0.300707   -0.000000
      8          1           0       -2.025420   -1.239638    0.000000
      9          1           0       -2.025185   -3.582501    0.000000
     10          1           0        0.007014   -4.755871    0.000000
     11          1           0        2.040043   -3.582057    0.000000
     12          1           0        2.036243   -1.233771    0.000000
     13          8           0        0.001388    3.101205   -0.000000
     14          6           0        0.004890    4.304269   -0.000000
     15          1           0        0.005684    4.814686    0.884070
     16          1           0        0.005684    4.814686   -0.884070
     17          1           0       -0.003500    0.700032    2.264686
     18         35           0       -0.003500    0.526604    3.248247
     19          1           0       -0.003500    0.700032   -2.264686
     20         35           0       -0.003500    0.526604   -3.248247
 ---------------------------------------------------------------------
 Rotational constants (GHZ):           0.4667525           0.2875573           0.1885886
 Standard basis: 6-311++G(d,p) (5D, 7F)
 There are   248 symmetry adapted cartesian basis functions of A'  symmetry.
 There are   124 symmetry adapted cartesian basis functions of A"  symmetry.
 There are   236 symmetry adapted basis functions of A'  symmetry.
 There are   121 symmetry adapted basis functions of A"  symmetry.
   357 basis functions,   593 primitive gaussians,   372 cartesian basis functions
    69 alpha electrons       69 beta electrons
       nuclear repulsion energy      1122.9992083871 Hartrees.
 NAtoms=   20 NActive=   20 NUniq=   17 SFac= 1.38D+00 NAtFMM=   60 NAOKFM=F Big=F
 Integral buffers will be    131072 words long.
 Raffenetti 2 integral format.
 Two-electron integral symmetry is turned on.
 Force inversion solution in PCM.
 ------------------------------------------------------------------------------
 Polarizable Continuum Model (PCM)
 =================================
 Model                : PCM.
 Atomic radii         : UFF (Universal Force Field).
 Polarization charges : Total charges.
 Charge compensation  : None.
 Solution method      : Matrix inversion.
 Cavity type          : Scaled VdW (van der Waals Surface) (Alpha=1.100).
 Cavity algorithm     : GePol (No added spheres)
                        Default sphere list used, NSphG=   20.
                        Lebedev-Laikov grids with approx.  5.0 points / Ang**2.
                        Smoothing algorithm: York/Karplus (Gamma=1.0000).
                        Polarization charges: spherical gaussians, with
                                              point-specific exponents (IZeta= 3).
                        Self-potential: point-specific (ISelfS= 7).
                        Self-field    : sphere-specific E.n sum rule (ISelfD= 2).
 1st derivatives      : Analytical E(r).r(x)/FMM algorithm (CHGder, D1EAlg=3).
                        Cavity 1st derivative terms included.
 Solvent              : DiChloroEthane, Eps=  10.125000 Eps(inf)=   2.087447
 ------------------------------------------------------------------------------
 Spheres list:
 ISph  on   Nord     Re0    Alpha      Xe            Ye            Ze
    1   C      1    1.9255  1.100     -0.003500     -1.090656      0.000000
    2   C      2    1.9255  1.100     -1.143483     -1.748825      0.000000
    3   C      3    1.9255  1.100     -1.143483     -3.073450      0.000000
    4   C      4    1.9255  1.100      0.007014     -3.737690      0.000000
    5   C      5    1.9255  1.100      1.158310     -3.072989      0.000000
    6   C      6    1.9255  1.100      1.158310     -1.749635      0.000000
    7   F      7    1.6820  1.100     -0.003500      0.300707     -0.000000
    8   H      8    1.4430  1.100     -2.025420     -1.239638      0.000000
    9   H      9    1.4430  1.100     -2.025185     -3.582501      0.000000
   10   H     10    1.4430  1.100      0.007014     -4.755871      0.000000
   11   H     11    1.4430  1.100      2.040043     -3.582057      0.000000
   12   H     12    1.4430  1.100      2.036243     -1.233771      0.000000
   13   O     13    1.7500  1.100      0.001388      3.101205     -0.000000
   14   C     14    1.9255  1.100      0.004890      4.304269     -0.000000
   15   H     15    1.4430  1.100      0.005684      4.814686      0.884070
   16   H     16    1.4430  1.100      0.005684      4.814686     -0.884070
   17   H     17    1.4430  1.100     -0.003500      0.700032      2.264686
   18  Br     18    2.0945  1.100     -0.003500      0.526604      3.248247
   19   H     19    1.4430  1.100     -0.003500      0.700032     -2.264686
   20  Br     20    2.0945  1.100     -0.003500      0.526604     -3.248247
 ------------------------------------------------------------------------------
 One-electron integrals computed using PRISM.
 NBasis=   357 RedAO= T EigKep=  4.38D-06  NBF=   236   121
 NBsUse=   356 1.00D-06 EigRej=  4.91D-07 NBFU=   235   121
 Initial guess from the checkpoint file:  "/home/lywu/software/g16/scr/Gau-5934.chk"
 B after Tr=    -0.000000   -0.000000    0.000000
         Rot=    1.000000   -0.000000   -0.000000   -0.000865 Ang=  -0.10 deg.
 Initial guess orbital symmetries:
       Occupied  (A") (A') (A") (A') (A") (A') (A') (A') (A") (A")
                 (A') (A') (A') (A') (A') (A') (A') (A') (A') (A")
                 (A') (A") (A') (A') (A") (A') (A") (A") (A') (A')
                 (A") (A') (A") (A') (A") (A') (A") (A') (A') (A')
                 (A") (A') (A') (A') (A') (A') (A') (A') (A") (A')
                 (A') (A") (A') (A') (A") (A') (A') (A') (A") (A')
                 (A') (A') (A") (A') (A") (A') (A") (A") (A")
       Virtual   (A') (A') (A') (A') (A") (A') (A") (A") (A') (A')
                 (A") (A') (A") (A") (A') (A') (A') (A") (A') (A')
                 (A") (A") (A') (A') (A') (A") (A') (A') (A') (A')
                 (A') (A") (A') (A") (A') (A") (A') (A") (A') (A')
                 (A') (A") (A') (A') (A') (A") (A') (A') (A') (A")
                 (A') (A') (A") (A') (A") (A') (A') (A') (A') (A')
                 (A') (A') (A") (A') (A') (A') (A") (A') (A') (A")
                 (A') (A') (A') (A') (A") (A') (A') (A") (A') (A')
                 (A') (A") (A') (A") (A') (A') (A") (A') (A") (A')
                 (A") (A') (A") (A') (A") (A') (A') (A") (A") (A')
                 (A") (A') (A') (A') (A") (A') (A') (A') (A") (A')
                 (A') (A') (A') (A') (A') (A') (A") (A') (A') (A')
                 (A') (A") (A') (A') (A") (A") (A') (A') (A") (A")
                 (A') (A') (A") (A") (A") (A") (A') (A') (A') (A')
                 (A') (A") (A') (A') (A") (A') (A') (A') (A") (A')
                 (A") (A") (A") (A') (A') (A") (A') (A") (A') (A')
                 (A') (A") (A') (A') (A") (A') (A') (A') (A") (A')
                 (A") (A') (A") (A") (A') (A") (A') (A") (A') (A')
                 (A") (A') (A') (A') (A") (A') (A') (A") (A') (A")
                 (A') (A") (A') (A') (A") (A') (A') (A') (A') (A")
                 (A') (A') (A') (A') (A") (A') (A') (A') (A") (A")
                 (A') (A") (A') (A") (A") (A") (A') (A') (A') (A")
                 (A') (A') (A') (A') (A') (A") (A') (A') (A') (A')
                 (A') (A") (A') (A") (A") (A') (A') (A') (A') (A")
                 (A') (A') (A') (A") (A") (A') (A') (A") (A') (A')
                 (A") (A') (A') (A') (A') (A") (A') (A") (A') (A')
                 (A') (A") (A") (A') (A") (A') (A') (A") (A') (A')
                 (A') (A') (A') (A') (A') (A') (A") (A') (A') (A")
                 (A') (A") (A') (A') (A") (A') (A")
 ExpMin= 3.50D-02 ExpMax= 4.40D+05 ExpMxC= 1.51D+04 IAcc=3 IRadAn=         5 AccDes= 0.00D+00
 Harris functional with IExCor= 1009 and IRadAn=       5 diagonalized for initial guess.
 HarFok:  IExCor= 1009 AccDes= 0.00D+00 IRadAn=         5 IDoV= 1 UseB2=F ITyADJ=14
 ICtDFT=  3500011 ScaDFX=  1.000000  1.000000  1.000000  1.000000
 FoFCou: FMM=F IPFlag=           0 FMFlag=      100000 FMFlg1=           0
         NFxFlg=           0 DoJE=T BraDBF=F KetDBF=T FulRan=T
         wScrn=  0.000000 ICntrl=       500 IOpCl=  0 I1Cent=   200000004 NGrid=           0
         NMat0=    1 NMatS0=      1 NMatT0=    0 NMatD0=    1 NMtDS0=    0 NMtDT0=    0
 Petite list used in FoFCou.
 Requested convergence on RMS density matrix=1.00D-08 within 128 cycles.
 Requested convergence on MAX density matrix=1.00D-06.
 Requested convergence on             energy=1.00D-06.
 No special actions if energy rises.
 Inv3:  Mode=1 IEnd=    15417867.
 Iteration    1 A*A^-1 deviation from unit magnitude is 2.89D-15 for   2242.
 Iteration    1 A*A^-1 deviation from orthogonality  is 2.40D-15 for   2267   2266.
 Iteration    1 A^-1*A deviation from unit magnitude is 3.33D-15 for   2256.
 Iteration    1 A^-1*A deviation from orthogonality  is 2.66D-15 for   2267   2266.
 Error on total polarization charges =  0.01608
 SCF Done:  E(RM062X) =  -5595.04373677     A.U. after   14 cycles
            NFock= 14  Conv=0.16D-08     -V/T= 2.0006
 DoSCS=F DFT=T ScalE2(SS,OS)=  1.000000  1.000000
 Range of M.O.s used for correlation:     1   356
 NBasis=   357 NAE=    69 NBE=    69 NFC=     0 NFV=     0
 NROrb=    356 NOA=    69 NOB=    69 NVA=   287 NVB=   287

 **** Warning!!: The largest alpha MO coefficient is  0.13175557D+03

 Symmetrizing basis deriv contribution to polar:
 IMax=3 JMax=2 DiffMx= 0.00D+00
 D1PCM: PCM CHGder 1st derivatives, ID1Alg=3 FixD1E=F DoIter=F DoCFld=F I1PDM=0.
 Calling FoFJK, ICntrl=      2127 FMM=F ISym2X=1 I1Cent= 0 IOpClX= 0 NMat=1 NMatS=1 NMatT=0.
 ***** Axes restored to original set *****
 -------------------------------------------------------------------
 Center     Atomic                   Forces (Hartrees/Bohr)
 Number     Number              X              Y              Z
 -------------------------------------------------------------------
      1        6          -0.048068694    0.000000000   -0.048589597
      2        6          -0.036898314    0.000000000    0.014841790
      3        6           0.009048672   -0.000000000    0.017700944
      4        6           0.018682293   -0.000000000    0.012290085
      5        6           0.018302536    0.000000000   -0.003669225
      6        6          -0.021578457    0.000000000   -0.027983809
      7        9           0.020402677   -0.000000000    0.011901874
      8        1          -0.048848239    0.000000000    0.026309170
      9        1          -0.001383557   -0.000000000    0.054625211
     10        1           0.047566648   -0.000000000    0.027465321
     11        1           0.046670837   -0.000000000   -0.028517392
     12        1          -0.002037572    0.000000000   -0.055288968
     13        8           0.009109746   -0.000000000    0.005231042
     14        6           0.049762950    0.000000000    0.029043892
     15        1          -0.029998931    0.052649838   -0.017462868
     16        1          -0.029998931   -0.052649838   -0.017462868
     17        1          -0.106506254   -0.691606757   -0.061495058
     18       35           0.106139422    0.691196108    0.061277756
     19        1          -0.106506254    0.691606757   -0.061495058
     20       35           0.106139422   -0.691196108    0.061277756
 -------------------------------------------------------------------
 Cartesian Forces:  Max     0.691606757 RMS     0.182950662
 -----------------------------------------------------------------------------------------------
                       Internal Coordinate Forces (Hartree/Bohr or radian)
  Cent   Atom   N1       Length/X         N2         Alpha/Y        N3         Beta/Z          J
 -----------------------------------------------------------------------------------------------
      1  C 
      2  C        1   0.036712(     1)
      3  C        2   0.097068(     2)      1   0.072146(    20)
      4  C        3   0.131032(     3)      2   0.222105(    21)      1   0.000000(    38)     0
      5  C        4   0.116521(     4)      3   0.252053(    22)      2   0.000000(    39)     0
      6  C        5   0.063159(     5)      4   0.149717(    23)      3   0.000000(    40)     0
      7  F        1  -0.021468(     6)      2  -0.000248(    24)      3   0.000000(    41)     0
      8  H        2   0.055458(     7)      3   0.003156(    25)      4   0.000000(    42)     0
      9  H        3   0.054625(     8)      4   0.002662(    26)      5  -0.000000(    43)     0
     10  H        4   0.054927(     9)      5   0.000005(    27)      6  -0.000000(    44)     0
     11  H        5   0.054677(    10)      6  -0.002619(    28)      1  -0.000000(    45)     0
     12  H        6   0.055303(    11)      1  -0.003107(    29)      2   0.000000(    46)     0
     13  O        7   0.001300(    12)      1   0.000005(    30)      3  -0.000000(    47)     0
     14  C       13   0.011805(    13)      1   0.000102(    31)      2  -0.000000(    48)     0
     15  H       14   0.062952(    14)      1   0.007207(    32)      2   0.000117(    49)     0
     16  H       14   0.062952(    15)      1   0.007207(    33)      2  -0.000117(    50)     0
     17  H        7  -0.000330(    16)      1   0.000867(    34)      2   0.000023(    51)     0
     18  Br      17   0.701977(    17)      7  -0.001267(    35)      1   0.000001(    52)     0
     19  H        7  -0.000330(    18)      1   0.000867(    36)      2  -0.000023(    53)     0
     20  Br      19   0.701977(    19)      7  -0.001267(    37)      1  -0.000001(    54)     0
 -----------------------------------------------------------------------------------------------
 Internal  Forces:  Max     0.701977314 RMS     0.148780627

 GradGradGradGradGradGradGradGradGradGradGradGradGradGradGradGradGradGrad
 Berny optimization.
 Search for a local minimum.
 Step number   2 out of a maximum of   29
 All quantities printed in internal units (Hartrees-Bohrs-Radians)
 Update second derivatives using D2CorN and points    1    2
 DE= -3.91D-01 DEPred=-3.74D-01 R= 1.04D+00
 TightC=F SS=  1.41D+00  RLast= 3.00D-01 DXNew= 5.0454D-01 9.0000D-01
 Trust test= 1.04D+00 RLast= 3.00D-01 DXMaxT set to 5.05D-01
 The second derivative matrix:
                          d1        d2        d3        d4        d5
           d1           0.89197
           d2          -0.03002   1.00640
           d3          -0.36537   0.41130   1.57895
           d4          -0.15412   0.02122   0.39823   0.99558
           d5           0.05496  -0.18233  -0.38106  -0.01504   0.95855
           d6           0.04566   0.04755   0.02939  -0.01662  -0.04447
           d7           0.00109   0.00099  -0.00225   0.00118   0.00211
           d8          -0.00055   0.00296   0.00304  -0.00153  -0.00056
           d9          -0.00087  -0.00207   0.00246   0.00379   0.00068
           d10          0.00318   0.00105  -0.00255   0.00033   0.00135
           d11         -0.01049  -0.00831   0.00181   0.00872   0.01141
[...]
 Alpha  occ. eigenvalues --  -10.56215 -10.56056 -10.55947 -10.55446  -9.01998
 Alpha  occ. eigenvalues --   -9.01998  -6.84741  -6.84741  -6.83800  -6.83800
 Alpha  occ. eigenvalues --   -6.83800  -6.83800  -2.87920  -2.87920  -2.87551
 Alpha  occ. eigenvalues --   -2.87551  -2.87549  -2.87549  -2.86734  -2.86734
 Alpha  occ. eigenvalues --   -2.86734  -2.86734  -1.39631  -1.19283  -0.98342
 Alpha  occ. eigenvalues --   -0.87995  -0.87960  -0.86625  -0.86215  -0.72309
 Alpha  occ. eigenvalues --   -0.72167  -0.71797  -0.64478  -0.60376  -0.59132
 Alpha  occ. eigenvalues --   -0.58387  -0.58346  -0.53952  -0.52658  -0.50946
 Alpha  occ. eigenvalues --   -0.50098  -0.49896  -0.49235  -0.47789  -0.45192
 Alpha  occ. eigenvalues --   -0.44144  -0.41979  -0.36602  -0.36592  -0.36588
 Alpha  occ. eigenvalues --   -0.36567  -0.34873  -0.32721  -0.31865
 Alpha virt. eigenvalues --   -0.00795  -0.00374   0.00154   0.00662   0.00830
 Alpha virt. eigenvalues --    0.01323   0.01678   0.01759   0.02746   0.03293
 Alpha virt. eigenvalues --    0.03356   0.04299   0.05104   0.05766   0.05783
 Alpha virt. eigenvalues --    0.06021   0.06715   0.07052   0.07146   0.08023
 Alpha virt. eigenvalues --    0.08374   0.08697   0.10505   0.10639   0.10976
 Alpha virt. eigenvalues --    0.11282   0.12221   0.12502   0.12940   0.13022
 Alpha virt. eigenvalues --    0.13547   0.13588   0.14147   0.14739   0.15044
 Alpha virt. eigenvalues --    0.15676   0.15842   0.16428   0.16486   0.16868
 Alpha virt. eigenvalues --    0.17174   0.17883   0.18298   0.19467   0.19784
 Alpha virt. eigenvalues --    0.20135   0.20912   0.21880   0.22168   0.23344
 Alpha virt. eigenvalues --    0.24384   0.25310   0.25606   0.27784   0.29762
 Alpha virt. eigenvalues --    0.30225   0.30661   0.31410   0.31951   0.32469
 Alpha virt. eigenvalues --    0.32668   0.34859   0.37928   0.38335   0.38650
 Alpha virt. eigenvalues --    0.40059   0.41228   0.41338   0.42045   0.42637
 Alpha virt. eigenvalues --    0.44195   0.45267   0.46271   0.46963   0.48109
 Alpha virt. eigenvalues --    0.48195   0.51428   0.51452   0.52030   0.52859
 Alpha virt. eigenvalues --    0.54831   0.56398   0.56656   0.57045   0.57592
 Alpha virt. eigenvalues --    0.58561   0.59262   0.59312   0.59843   0.60162
 Alpha virt. eigenvalues --    0.61817   0.61865   0.63070   0.63783   0.65059
 Alpha virt. eigenvalues --    0.66376   0.66654   0.67113   0.67543   0.69236
 Alpha virt. eigenvalues --    0.69559   0.69714   0.70910   0.71039   0.72326
 Alpha virt. eigenvalues --    0.73967   0.75966   0.76600   0.77610   0.78610
 Alpha virt. eigenvalues --    0.79935   0.81141   0.82464   0.84092   0.87867
 Alpha virt. eigenvalues --    0.88318   0.88973   0.91579   0.93830   0.95244
 Alpha virt. eigenvalues --    0.96066   0.96320   0.98153   1.01634   1.04262
 Alpha virt. eigenvalues --    1.04969   1.05256   1.06533   1.07635   1.10750
 Alpha virt. eigenvalues --    1.12025   1.14805   1.16076   1.16519   1.17952
 Alpha virt. eigenvalues --    1.22869   1.24997   1.31001   1.33747   1.40986
 Alpha virt. eigenvalues --    1.44971   1.45621   1.46080   1.46264   1.48855
 Alpha virt. eigenvalues --    1.48892   1.49066   1.53024   1.54468   1.55442
 Alpha virt. eigenvalues --    1.58007   1.59953   1.60364   1.60823   1.62242
 Alpha virt. eigenvalues --    1.67607   1.68191   1.68560   1.69658   1.70941
 Alpha virt. eigenvalues --    1.74728   1.77187   1.77398   1.77951   1.79772
 Alpha virt. eigenvalues --    1.86197   1.87232   1.90114   1.91505   1.94411
 Alpha virt. eigenvalues --    1.94942   1.96266   1.96537   1.99034   2.00134
 Alpha virt. eigenvalues --    2.01787   2.03730   2.03802   2.05479   2.05521
 Alpha virt. eigenvalues --    2.06463   2.06922   2.08554   2.09717   2.10042
 Alpha virt. eigenvalues --    2.11545   2.12448   2.17295   2.24053   2.30197
 Alpha virt. eigenvalues --    2.30632   2.35080   2.43840   2.44501   2.47774
 Alpha virt. eigenvalues --    2.48486   2.50980   2.52541   2.52718   2.60465
 Alpha virt. eigenvalues --    2.61561   2.65295   2.66421   2.69767   2.72462
 Alpha virt. eigenvalues --    2.73124   2.74007   2.75013   2.75861   2.77647
 Alpha virt. eigenvalues --    2.78435   2.84607   2.85466   2.86161   2.88812
 Alpha virt. eigenvalues --    2.94301   2.94339   2.94367   2.97977   2.98038
 Alpha virt. eigenvalues --    3.14063   3.18301   3.25579   3.38760   3.39235
 Alpha virt. eigenvalues --    3.42739   3.48391   3.52938   3.56129   3.56539
 Alpha virt. eigenvalues --    3.66585   3.74399   3.78655   3.85667   3.93692
 Alpha virt. eigenvalues --    3.97869   4.02752   4.05112   4.08748   4.15858
 Alpha virt. eigenvalues --    4.18929   4.19902   4.27829   4.27910   4.28486
 Alpha virt. eigenvalues --    4.28805   4.32230   4.34009   4.35003   4.35833
 Alpha virt. eigenvalues --    4.50135   4.52709   4.85530   4.94059   5.10005
 Alpha virt. eigenvalues --    5.21678   5.78995   6.55652   6.58680   6.82797
 Alpha virt. eigenvalues --    6.84526   6.90719   7.62032   7.63636   7.64849
 Alpha virt. eigenvalues --    7.65585   7.66740   7.67720  23.67036  23.99684
 Alpha virt. eigenvalues --   24.01364  24.05052  24.15405  24.16798  24.27223
 Alpha virt. eigenvalues --   48.35635  48.37050  50.04331  66.94859 290.76675
 Alpha virt. eigenvalues --  290.78412 290.79871 290.80678 290.83773 290.84794
 Alpha virt. eigenvalues -- 1020.912411020.93128
          Condensed to atoms (all electrons):
               1          2          3          4          5          6
     1  C    9.417328  -0.758799  -1.247287   0.100564  -1.074023  -0.457087
     2  C   -0.758799   9.276913   1.222804  -0.548652  -0.145409  -3.246702
     3  C   -1.247287   1.222804   5.988232   0.386888  -0.154144  -0.288433
     4  C    0.100564  -0.548652   0.386888   6.193206   0.358092  -0.446301
     5  C   -1.074023  -0.145409  -0.154144   0.358092   5.873437   1.060305
     6  C   -0.457087  -3.246702  -0.288433  -0.446301   1.060305   9.187891
     7  F    0.574611  -0.234818  -0.045786   0.013279  -0.040959  -0.233051
     8  H   -0.083837   0.482286  -0.045751  -0.005913   0.008197  -0.035045
     9  H   -0.009219  -0.027201   0.398002  -0.088852   0.010089   0.030760
    10  H    0.038947  -0.014071  -0.072420   0.473139  -0.069899  -0.011249
    11  H   -0.007270   0.033307   0.010445  -0.089789   0.396463  -0.030316
    12  H   -0.080645  -0.035954   0.006064  -0.004310  -0.045845   0.479710
    13  O    0.026728  -0.009400  -0.000983  -0.000012  -0.000881  -0.009611
    14  C    0.003550  -0.000929  -0.000250   0.000258  -0.000191  -0.000269
    15  H   -0.000430   0.000118   0.000028  -0.000018   0.000024   0.000090
    16  H   -0.000430   0.000118   0.000028  -0.000018   0.000024   0.000090
    17  H   -0.075474   0.020675   0.014684  -0.012865   0.012320   0.015016
    18  Br   0.165352  -0.039420  -0.035330   0.023131  -0.032194  -0.032936
    19  H   -0.075474   0.020675   0.014684  -0.012865   0.012320   0.015016
    20  Br   0.165352  -0.039420  -0.035330   0.023131  -0.032194  -0.032936
               7          8          9         10         11         12
     1  C    0.574611  -0.083837  -0.009219   0.038947  -0.007270  -0.080645
     2  C   -0.234818   0.482286  -0.027201  -0.014071   0.033307  -0.035954
     3  C   -0.045786  -0.045751   0.398002  -0.072420   0.010445   0.006064
     4  C    0.013279  -0.005913  -0.088852   0.473139  -0.089789  -0.004310
     5  C   -0.040959   0.008197   0.010089  -0.069899   0.396463  -0.045845
     6  C   -0.233051  -0.035045   0.030760  -0.011249  -0.030316   0.479710
     7  F    9.119389  -0.003501  -0.001538   0.000812  -0.001555  -0.003616
     8  H   -0.003501   0.450673  -0.003353   0.000652   0.001015   0.000390
     9  H   -0.001538  -0.003353   0.452354  -0.010153   0.002295   0.000992
    10  H    0.000812   0.000652  -0.010153   0.465110  -0.009904   0.000626
    11  H   -0.001555   0.001015   0.002295  -0.009904   0.451558  -0.002823
    12  H   -0.003616   0.000390   0.000992   0.000626  -0.002823   0.449443
    13  O    0.002744   0.000575  -0.000008   0.000004  -0.000009   0.000611
    14  C    0.000398  -0.000018  -0.000028   0.000008  -0.000028  -0.000025
    15  H   -0.000039  -0.000016   0.000002  -0.000001   0.000002  -0.000017
    16  H   -0.000039  -0.000016   0.000002  -0.000001   0.000002  -0.000017
    17  H   -0.034712   0.002469   0.002123  -0.001171   0.002141   0.002594
    18  Br   0.005456  -0.000636  -0.002872   0.001612  -0.002861  -0.000777
    19  H   -0.034712   0.002469   0.002123  -0.001171   0.002141   0.002594
    20  Br   0.005456  -0.000636  -0.002872   0.001612  -0.002861  -0.000777
              13         14         15         16         17         18
     1  C    0.026728   0.003550  -0.000430  -0.000430  -0.075474   0.165352
     2  C   -0.009400  -0.000929   0.000118   0.000118   0.020675  -0.039420
     3  C   -0.000983  -0.000250   0.000028   0.000028   0.014684  -0.035330
     4  C   -0.000012   0.000258  -0.000018  -0.000018  -0.012865   0.023131
     5  C   -0.000881  -0.000191   0.000024   0.000024   0.012320  -0.032194
     6  C   -0.009611  -0.000269   0.000090   0.000090   0.015016  -0.032936
     7  F    0.002744   0.000398  -0.000039  -0.000039  -0.034712   0.005456
     8  H    0.000575  -0.000018  -0.000016  -0.000016   0.002469  -0.000636
     9  H   -0.000008  -0.000028   0.000002   0.000002   0.002123  -0.002872
    10  H    0.000004   0.000008  -0.000001  -0.000001  -0.001171   0.001612
    11  H   -0.000009  -0.000028   0.000002   0.000002   0.002141  -0.002861
    12  H    0.000611  -0.000025  -0.000017  -0.000017   0.002594  -0.000777
    13  O    8.169961   0.269740  -0.083850  -0.083850   0.010609  -0.005141
    14  C    0.269740   4.896516   0.397570   0.397570  -0.005325   0.002046
    15  H   -0.083850   0.397570   0.656738  -0.103640   0.000896  -0.000245
    16  H   -0.083850   0.397570  -0.103640   0.656738   0.000119   0.000024
    17  H    0.010609  -0.005325   0.000896   0.000119   0.633349   0.231797
    18  Br  -0.005141   0.002046  -0.000245   0.000024   0.231797  34.872645
    19  H    0.010609  -0.005325   0.000119   0.000896   0.008081  -0.006322
    20  Br  -0.005141   0.002046   0.000024  -0.000245  -0.006322   0.003102
              19         20
     1  C   -0.075474   0.165352
     2  C    0.020675  -0.039420
     3  C    0.014684  -0.035330
     4  C   -0.012865   0.023131
     5  C    0.012320  -0.032194
     6  C    0.015016  -0.032936
     7  F   -0.034712   0.005456
     8  H    0.002469  -0.000636
     9  H    0.002123  -0.002872
    10  H   -0.001171   0.001612
    11  H    0.002141  -0.002861
    12  H    0.002594  -0.000777
    13  O    0.010609  -0.005141
    14  C   -0.005325   0.002046
    15  H    0.000119   0.000024
    16  H    0.000896  -0.000245
    17  H    0.008081  -0.006322
    18  Br  -0.006322   0.003102
    19  H    0.633349   0.231797
    20  Br   0.231797  34.872645
 Mulliken charges:
               1
     1  C   -0.622457
     2  C    0.043879
     3  C   -0.116146
     4  C   -0.362091
     5  C   -0.135531
     6  C    0.035058
     7  F   -0.087820
     8  H    0.229996
     9  H    0.247355
    10  H    0.207519
    11  H    0.248045
    12  H    0.231782
    13  O   -0.292695
    14  C    0.042685
    15  H    0.132645
    16  H    0.132645
    17  H    0.178996
    18  Br  -0.146430
    19  H    0.178996
    20  Br  -0.146430
 Sum of Mulliken charges =  -0.00000
 Mulliken charges with hydrogens summed into heavy atoms:
               1
     1  C   -0.622457
     2  C    0.273874
     3  C    0.131209
     4  C   -0.154573
     5  C    0.112515
     6  C    0.266840
     7  F   -0.087820
    13  O   -0.292695
    14  C    0.307975
    18  Br   0.032566
    20  Br   0.032566
 APT charges:
               1
     1  C   -0.892903
     2  C   -0.382984
     3  C   -0.275410
     4  C   -0.918022
     5  C   -0.285051
     6  C   -0.408974
     7  F   -0.106787
     8  H    0.356404
     9  H    0.780252
    10  H    0.961372
    11  H    0.782514
    12  H    0.349215
    13  O   -0.981444
    14  C   -0.191990
    15  H    0.603611
    16  H    0.603611
    17  H   -0.224809
    18  Br   0.228102
    19  H   -0.224809
    20  Br   0.228102
 Sum of APT charges =  -0.00000
 APT charges with hydrogens summed into heavy atoms:
               1
     1  C   -0.892903
     2  C   -0.026580
     3  C    0.504842
     4  C    0.043350
     5  C    0.497463
     6  C   -0.059759
     7  F   -0.106787
    13  O   -0.981444
    14  C    1.015232
    18  Br   0.003293
    20  Br   0.003293
 Electronic spatial extent (au):  <R**2>=           5706.0897
 Charge=             -0.0000 electrons
 Dipole moment (field-independent basis, Debye):
    X=             -0.0054    Y=              0.9318    Z=              0.0000  Tot=              0.9318
 Quadrupole moment (field-independent basis, Debye-Ang):
   XX=            -85.0857   YY=            -56.1072   ZZ=           -105.8587
   XY=              0.1597   XZ=              0.0000   YZ=              0.0000
 Traceless Quadrupole moment (field-independent basis, Debye-Ang):
   XX=             -2.7351   YY=             26.2433   ZZ=            -23.5082
   XY=              0.1597   XZ=              0.0000   YZ=              0.0000
 Octapole moment (field-independent basis, Debye-Ang**2):
  XXX=             -0.2528  YYY=            164.4893  ZZZ=             -0.0000  XYY=             -0.1421
  XXY=              0.8255  XXZ=              0.0000  XZZ=             -0.1668  YZZ=             23.2679
  YYZ=             -0.0000  XYZ=             -0.0000
 Hexadecapole moment (field-independent basis, Debye-Ang**3):
 XXXX=           -314.9978 YYYY=          -1827.4558 ZZZZ=          -2885.8602 XXXY=              0.8832
 XXXZ=              0.0000 YYYX=              2.6566 YYYZ=             -0.0000 ZZZX=              0.0000
 ZZZY=              0.0000 XXYY=           -514.6060 XXZZ=           -569.4582 YYZZ=          -1025.3357
 XXYZ=              0.0000 YYXZ=             -0.0000 ZZXY=              0.5239
 N-N= 1.050407328605D+03 E-N=-1.545596492979D+04  KE= 5.587808177192D+03
 Symmetry A'   KE= 2.996649360739D+03
 Symmetry A"   KE= 2.591158816453D+03
  Exact polarizability:   0.000   0.000   0.000   0.000   0.000   0.000
 Approx polarizability: 145.246   0.293 164.204   0.000  -0.000 122.964
 Rotating derivatives to standard orientation.
 ***** Axes restored to original set *****
 -------------------------------------------------------------------
 Center     Atomic                   Forces (Hartrees/Bohr)
 Number     Number              X              Y              Z
 -------------------------------------------------------------------
      1        6           0.017225413    0.000000000   -0.001757440
      2        6          -0.017876160   -0.000000000    0.005555792
      3        6           0.006260490    0.000000000    0.000919670
      4        6           0.004321945    0.000000000   -0.004482817
      5        6          -0.007330098   -0.000000000    0.002295185
      6        6           0.001351978    0.000000000   -0.000875398
      7        9           0.000083808    0.000000000    0.001992572
      8        1          -0.000960160   -0.000000000   -0.001663071
      9        1          -0.001234435   -0.000000000    0.000000032
     10        1           0.000189977    0.000000000   -0.000328998
     11        1          -0.000642703   -0.000000000   -0.001113279
     12        1          -0.000475759   -0.000000000    0.000010181
     13        8           0.000036799   -0.000000000   -0.000061402
     14        6           0.007313210    0.000000000    0.004455743
     15        1          -0.003671451   -0.002470983   -0.002202030
     16        1          -0.003671451    0.002470983   -0.002202030
     17        1          -0.000776990   -0.000030100   -0.000449948
     18       35           0.000316288   -0.000063923    0.000178592
     19        1          -0.000776990    0.000030100   -0.000449948
     20       35           0.000316288    0.000063923    0.000178592
 -------------------------------------------------------------------
 Cartesian Forces:  Max     0.017876160 RMS     0.003928407
 -----------------------------------------------------------------------------------------------
                       Internal Coordinate Forces (Hartree/Bohr or radian)
  Cent   Atom   N1       Length/X         N2         Alpha/Y        N3         Beta/Z          J
 -----------------------------------------------------------------------------------------------
      1  C 
      2  C        1  -0.000000(     1)
      3  C        2   0.000001(     2)      1  -0.038877(    20)
      4  C        3   0.000001(     3)      2  -0.031062(    21)      1  -0.000000(    38)     0
      5  C        4   0.000001(     4)      3  -0.019020(    22)      2  -0.000000(    39)     0
      6  C        5  -0.000001(     5)      4   0.000983(    23)      3  -0.000000(    40)     0
      7  F        1  -0.000001(     6)      2  -0.004192(    24)      3  -0.000000(    41)     0
      8  H        2  -0.000000(     7)      3   0.003934(    25)      4  -0.000000(    42)     0
      9  H        3   0.000000(     8)      4   0.002526(    26)      5  -0.000000(    43)     0
     10  H        4   0.000000(     9)      5  -0.000778(    27)      6   0.000000(    44)     0
     11  H        5   0.000000(    10)      6  -0.002630(    28)      1  -0.000000(    45)     0
     12  H        6  -0.000000(    11)      1  -0.000974(    29)      2  -0.000000(    46)     0
     13  O        7  -0.000001(    12)      1  -0.000075(    30)      3  -0.000000(    47)     0
     14  C       13  -0.000000(    13)      1   0.000108(    31)      2  -0.000000(    48)     0
     15  H       14   0.000000(    14)      1   0.010284(    32)      2   0.000116(    49)     0
     16  H       14   0.000000(    15)      1   0.010284(    33)      2  -0.000116(    50)     0
     17  H        7   0.000000(    16)      1   0.001194(    34)      2   0.000028(    51)     0
     18  Br      17   0.000000(    17)      7  -0.000993(    35)      1   0.000003(    52)     0
     19  H        7   0.000000(    18)      1   0.001194(    36)      2  -0.000028(    53)     0
     20  Br      19   0.000000(    19)      7  -0.000993(    37)      1  -0.000003(    54)     0
 -----------------------------------------------------------------------------------------------
 Internal  Forces:  Max     0.038877423 RMS     0.007580817
 1\1\GINC-LOCALHOST\POpt\RM062X\6-311++G(d,p)\C7H9Br2F1O1\LYWU\06-Jan-2
 025\1\\# m062x 6-311++G(d,p) opt=(recalc=5,z-matrix) scrf=(solvent=dic
 hloroethane)\\test\\0,1\C\C,1,d1\C,2,d2,1,120.\C,3,d3,2,120.,1,0.,0\C,
 4,d4,3,120.,2,0.,0\C,5,d5,4,120.,3,0.,0\F,1,d6,2,120.,3,180.,0\H,2,d7,
 3,120.,4,180.,0\H,3,d8,4,120.,5,180.,0\H,4,d9,5,120.,6,180.,0\H,5,d10,
 6,120.,1,180.,0\H,6,d11,1,120.,2,180.,0\O,7,d12,1,179.9,3,180.,0\C,13,
 d13,1,179.9,2,180.,0\H,14,d14,1,120.,2,90.,0\H,14,d15,1,120.,2,-90.,0\
 H,7,d16,1,100.,2,90.,0\Br,17,d17,7,160.,1,0.,0\H,7,d18,1,100.,2,-90.,0
 \Br,19,d19,7,160.,1,0.,0\\d1=1.37790868\d2=1.38293546\d3=1.38738432\d4
 =1.39574301\d5=1.39939733\d6=1.35910905\d7=1.08410071\d8=1.08264221\d9
 =1.08301266\d10=1.08256904\d11=1.08332851\d12=3.35716273\d13=1.2040407
 2\d14=1.10098198\d15=1.10098198\d16=2.13193592\d17=1.42513152\d18=2.13
 193591\d19=1.42513152\\Version=ES64L-G16RevB.01\State=1-A'\HF=-5595.48
 10017\RMSD=2.023e-09\RMSF=3.928e-03\Dipole=-0.3185485,0.,-0.18147\Pola
 r=0.,0.,0.,0.,0.,0.\Quadrupole=14.0222516,-17.4777528,3.4555012,0.,9.3
 885227,0.\PG=CS [SG(C7H5F1O1),X(H4Br2)]\\@


 BULLDOZER: SOMEONE WHO SLEEPS THROUGH SPEECHES.
 Job cpu time:       0 days  4 hours 23 minutes 19.0 seconds.
 Elapsed time:       0 days  1 hours  5 minutes 57.4 seconds.
 File lengths (MBytes):  RWF=    423 Int=      0 D2E=      0 Chk=     22 Scr=      1
 Normal termination of Gaussian 16 at Mon Jan  6 19:48:42 2025.
