 Entering Gaussian System, Link 0=g16
 Input=model_H1.gjf
 Output=model_H1.log
 Initial command:
 /home/zjxu/prog/g16/l1.exe "/home/zjxu/zjhan/5_model/amide/chloroform/Gau-90391.inp" -scrdir="/home/zjxu/zjhan/5_model/amide/chloroform/"
 Entering Link 1 = /home/zjxu/prog/g16/l1.exe PID=     90392.
  
 Copyright (c) 1988-2017, Gaussian, Inc.  All Rights Reserved.
  
 This is part of the Gaussian(R) 16 program.  It is based on
 the Gaussian(R) 09 system (copyright 2009, Gaussian, Inc.),
 the Gaussian(R) 03 system (copyright 2003, Gaussian, Inc.),
 the Gaussian(R) 98 system (copyright 1998, Gaussian, Inc.),
 the Gaussian(R) 94 system (copyright 1995, Gaussian, Inc.),
 the Gaussian 92(TM) system (copyright 1992, Gaussian, Inc.),
 the Gaussian 90(TM) system (copyright 1990, Gaussian, Inc.),
 the Gaussian 88(TM) system (copyright 1988, Gaussian, Inc.),
 the Gaussian 86(TM) system (copyright 1986, Carnegie Mellon
 University), and the Gaussian 82(TM) system (copyright 1983,
 Carnegie Mellon University). Gaussian is a federally registered
 trademark of Gaussian, Inc.
  
 This software contains proprietary and confidential information,
 including trade secrets, belonging to Gaussian, Inc.
  
 This software is provided under written license and may be
 used, copied, transmitted, or stored only in accord with that
 written license.
  
 The following legend is applicable only to US Government
 contracts under FAR:
  
                    RESTRICTED RIGHTS LEGEND
  
 Use, reproduction and disclosure by the US Government is
 subject to restrictions as set forth in subparagraphs (a)
 and (c) of the Commercial Computer Software - Restricted
 Rights clause in FAR 52.227-19.
  
 Gaussian, Inc.
 340 Quinnipiac St., Bldg. 40, Wallingford CT 06492
  
  
 ---------------------------------------------------------------
 Warning -- This program may not be used in any manner that
 competes with the business of Gaussian, Inc. or will provide
 assistance to any competitor of Gaussian, Inc.  The licensee
 of this program is prohibited from giving any competitor of
 Gaussian, Inc. access to this program.  By using this program,
 the user acknowledges that Gaussian, Inc. is engaged in the
 business of creating and licensing software in the field of
 computational chemistry and represents and warrants to the
 licensee that it is not a competitor of Gaussian, Inc. and that
 it will not use this program in any manner prohibited above.
 ---------------------------------------------------------------
  

 Cite this work as:
 Gaussian 16, Revision B.01,
 M. J. Frisch, G. W. Trucks, H. B. Schlegel, G. E. Scuseria, 
 M. A. Robb, J. R. Cheeseman, G. Scalmani, V. Barone, 
 G. A. Petersson, H. Nakatsuji, X. Li, M. Caricato, A. V. Marenich, 
 J. Bloino, B. G. Janesko, R. Gomperts, B. Mennucci, H. P. Hratchian, 
 J. V. Ortiz, A. F. Izmaylov, J. L. Sonnenberg, D. Williams-Young, 
 F. Ding, F. Lipparini, F. Egidi, J. Goings, B. Peng, A. Petrone, 
 T. Henderson, D. Ranasinghe, V. G. Zakrzewski, J. Gao, N. Rega, 
 G. Zheng, W. Liang, M. Hada, M. Ehara, K. Toyota, R. Fukuda, 
 J. Hasegawa, M. Ishida, T. Nakajima, Y. Honda, O. Kitao, H. Nakai, 
 T. Vreven, K. Throssell, J. A. Montgomery, Jr., J. E. Peralta, 
 F. Ogliaro, M. J. Bearpark, J. J. Heyd, E. N. Brothers, K. N. Kudin, 
 V. N. Staroverov, T. A. Keith, R. Kobayashi, J. Normand, 
 K. Raghavachari, A. P. Rendell, J. C. Burant, S. S. Iyengar, 
 J. Tomasi, M. Cossi, J. M. Millam, M. Klene, C. Adamo, R. Cammi, 
 J. W. Ochterski, R. L. Martin, K. Morokuma, O. Farkas, 
 J. B. Foresman, and D. J. Fox, Gaussian, Inc., Wallingford CT, 2016.
 
 ******************************************
 Gaussian 16:  ES64L-G16RevB.01 20-Dec-2017
                 7-Apr-2024 
 ******************************************
 %mem=4GB
 %nprocshared=4
 Will use up to    4 processors via shared memory.
 %chk=model_H1.chk
 ----------------------------------------------------------------------
 # opt=(maxcyc=50,recalc=5,z-matrix) 6-311++g(d,p) m062x scrf=(solvent=
 chloroform)
 ----------------------------------------------------------------------
 1/6=50,10=7,18=40,26=3,38=1,71=5/1,3;
 2/12=2,17=6,18=5,29=3,40=1/2;
 3/5=4,6=6,7=1111,11=2,25=1,30=1,70=2201,71=2,72=7,74=-55,140=1/1,2,3;
 4//1;
 5/5=2,38=5,53=7/2;
 8/6=4,10=90,11=11/1;
 11/6=1,8=1,9=11,15=111,16=1/1,2,10;
 10/6=1/2;
 6/7=2,8=2,9=2,10=2,28=1/1;
 7/10=1,25=1/1,2,3,16;
 1/6=50,10=7,18=40,26=3,71=5/3(3);
 2/29=3/2;
 7/9=1,25=1,44=-1/16;
 99//99;
 2/29=3/2;
 3/5=4,6=6,7=1111,11=2,25=1,30=1,70=2205,71=2,72=7,74=-55,140=1/1,2,3;
 4/5=5,16=3,69=1/1;
 5/5=2,38=5,53=7/2;
 8/6=4,10=90,11=11/1;
 11/6=1,8=1,9=11,15=111,16=1/1,2,10;
 10/6=1/2;
 7/10=1,25=1/1,2,3,16;
 1/6=50,18=40,26=3,71=5/3(-8);
 2/29=3/2;
 6/7=2,8=2,9=2,10=2,19=2,28=1/1;
 7/9=1,25=1,44=-1/16;
 99/9=1/99;
 ----
 test
 ----
 Symbolic Z-matrix:
 Charge =  0 Multiplicity = 1
 C
 C                    1    B1
 C                    2    B2       1     120. 
 C                    3    B3       2     120.     1     0.       0
 C                    4    B4       3     120.     2     0.       0
 C                    1    B5       2     119.97771  3     1.71723  0
 F                    1    B6       2     120.     3    -180.     0
 H                    2    B7       1     120.     6    -178.28277  0
 H                    3    B8       2     120.     1     180.     0
 H                    4    B9       3     120.     2     180.     0
 H                    5    B10      4     120.     3     180.     0
 H                    6    B11      1     119.91553  2    -177.77152  0
 O                    1    B12      2     120.     3    -180.     0
 C                    13   B13      1     179.9    2     180.     0
 H                    14   B14      13    119.99997  1    -90.0449  0
 H                    14   B15      13    119.99997  1     90.0449  0
 H                    7    B16      1     100.     2     90.      0
 N                    17   B17      7     179.9    1     90.      0
 C                    18   B18      17    119.5    7     0.       0
 O                    19   B19      18    123.2    17   -180.     0
 C                    18   B20      17    121.9    19   -180.     0
 H                    21   B21      18    110.7    17   -180.     0
 H                    21   B22      18    110.7    17   -60.      0
 H                    21   B23      18    110.7    17    60.      0
 H                    19   B24      18    113.46722  17    0.       0
       Variables:
  B1                    1.3                      
  B2                    1.3                      
  B3                    1.3                      
  B4                    1.3                      
  B5                    1.3                      
  B6                    1.4                      
  B7                    1.                       
  B8                    1.                       
  B9                    1.                       
  B10                   1.                       
  B11                   1.00101                  
  B12                   4.2                      
  B13                   1.2                      
  B14                   1.                       
  B15                   1.                       
  B16                   2.12                     
  B17                   1.                       
  B18                   1.33                     
  B19                   1.23                     
  B20                   1.45                     
  B21                   1.                       
  B22                   1.                       
  B23                   1.                       
  B24                   1.                       
 

 GradGradGradGradGradGradGradGradGradGradGradGradGradGradGradGradGradGrad
 Berny optimization.
 Initialization pass.
                       ----------------------------
                       !    Initial Parameters    !
                       ! (Angstroms and Degrees)  !
 ----------------------                            ----------------------
 !      Name          Value   Derivative information (Atomic Units)     !
 ------------------------------------------------------------------------
 !       B1          1.3      calculate D2E/DX2 analytically            !
 !       B2          1.3      calculate D2E/DX2 analytically            !
 !       B3          1.3      calculate D2E/DX2 analytically            !
 !       B4          1.3      calculate D2E/DX2 analytically            !
 !       B5          1.3      calculate D2E/DX2 analytically            !
 !       B6          1.4      calculate D2E/DX2 analytically            !
 !       B7          1.0      calculate D2E/DX2 analytically            !
 !       B8          1.0      calculate D2E/DX2 analytically            !
 !       B9          1.0      calculate D2E/DX2 analytically            !
 !       B10         1.0      calculate D2E/DX2 analytically            !
 !       B11         1.001    calculate D2E/DX2 analytically            !
 !       B12         4.2      calculate D2E/DX2 analytically            !
 !       B13         1.2      calculate D2E/DX2 analytically            !
 !       B14         1.0      calculate D2E/DX2 analytically            !
 !       B15         1.0      calculate D2E/DX2 analytically            !
 !       B16         2.12     calculate D2E/DX2 analytically            !
 !       B17         1.0      calculate D2E/DX2 analytically            !
 !       B18         1.33     calculate D2E/DX2 analytically            !
 !       B19         1.23     calculate D2E/DX2 analytically            !
 !       B20         1.45     calculate D2E/DX2 analytically            !
 !       B21         1.0      calculate D2E/DX2 analytically            !
 !       B22         1.0      calculate D2E/DX2 analytically            !
 !       B23         1.0      calculate D2E/DX2 analytically            !
 !       B24         1.0      calculate D2E/DX2 analytically            !
 ------------------------------------------------------------------------
 Trust Radius=3.00D-01 FncErr=1.00D-07 GrdErr=1.00D-06 EigMax=2.50D+02 EigMin=1.00D-04
 Number of steps in this run=     50 maximum allowed number of steps=    100.
 GradGradGradGradGradGradGradGradGradGradGradGradGradGradGradGradGradGrad

 ---------------------------------------------------------------------------------------------------
                            Z-MATRIX (ANGSTROMS AND DEGREES)
   CD    Cent   Atom    N1       Length/X        N2       Alpha/Y        N3        Beta/Z          J
 ---------------------------------------------------------------------------------------------------
      1      1  C 
      2      2  C        1   1.300000(     1)
      3      3  C        2   1.300000(     2)      1  120.000(    25)
      4      4  C        3   1.300000(     3)      2  120.000(    26)      1    0.000(    48)      0
      5      5  C        4   1.300000(     4)      3  120.000(    27)      2    0.000(    49)      0
      6      6  C        1   1.300000(     5)      2  119.978(    28)      3    1.717(    50)      0
      7      7  F        1   1.400000(     6)      2  120.000(    29)      3 -180.000(    51)      0
      8      8  H        2   1.000000(     7)      1  120.000(    30)      6 -178.283(    52)      0
      9      9  H        3   1.000000(     8)      2  120.000(    31)      1  180.000(    53)      0
     10     10  H        4   1.000000(     9)      3  120.000(    32)      2  180.000(    54)      0
     11     11  H        5   1.000000(    10)      4  120.000(    33)      3  180.000(    55)      0
     12     12  H        6   1.001007(    11)      1  119.916(    34)      2 -177.772(    56)      0
     13     13  O        1   4.200000(    12)      2  120.000(    35)      3 -180.000(    57)      0
     14     14  C       13   1.200000(    13)      1  179.900(    36)      2  180.000(    58)      0
     15     15  H       14   1.000000(    14)     13  120.000(    37)      1  -90.045(    59)      0
     16     16  H       14   1.000000(    15)     13  120.000(    38)      1   90.045(    60)      0
     17     17  H        7   2.120000(    16)      1  100.000(    39)      2   90.000(    61)      0
     18     18  N       17   1.000000(    17)      7  179.900(    40)      1   90.000(    62)      0
     19     19  C       18   1.330000(    18)     17  119.500(    41)      7    0.000(    63)      0
     20     20  O       19   1.230000(    19)     18  123.200(    42)     17 -180.000(    64)      0
     21     21  C       18   1.450000(    20)     17  121.900(    43)     19 -180.000(    65)      0
     22     22  H       21   1.000000(    21)     18  110.700(    44)     17 -180.000(    66)      0
     23     23  H       21   1.000000(    22)     18  110.700(    45)     17  -60.000(    67)      0
     24     24  H       21   1.000000(    23)     18  110.700(    46)     17   60.000(    68)      0
     25     25  H       19   1.000000(    24)     18  113.467(    47)     17    0.000(    69)      0
 ---------------------------------------------------------------------------------------------------
                         Z-Matrix orientation:                         
 ---------------------------------------------------------------------
 Center     Atomic      Atomic             Coordinates (Angstroms)
 Number     Number       Type             X           Y           Z
 ---------------------------------------------------------------------
      1          6           0        0.000000    0.000000    0.000000
      2          6           0        0.000000    0.000000    1.300000
      3          6           0        1.125833    0.000000    1.950000
      4          6           0        2.251666    0.000000    1.300000
      5          6           0        2.251666    0.000000    0.000000
      6          6           0        1.125580   -0.033745   -0.649562
      7          9           0       -1.212436    0.000000   -0.700000
      8          1           0       -0.866025    0.000000    1.800000
      9          1           0        1.125833    0.000000    2.950000
     10          1           0        3.117691    0.000000    1.800000
     11          1           0        3.117691    0.000000   -0.500000
     12          1           0        1.125833   -0.000000   -1.650000
     13          8           0       -3.637307    0.000000   -2.100000
     14          6           0       -4.675488    0.000000   -2.701813
     15          1           0       -5.108404    0.866025   -2.951981
     16          1           0       -5.108404   -0.866025   -2.951981
     17          1           0       -1.531249    2.087792   -0.884067
     18          7           0       -1.680760    3.072599   -0.972403
     19          6           0       -1.199589    3.715582   -2.032566
     20          8           0       -1.343395    4.924232   -2.209721
     21          6           0       -2.411147    3.829308    0.025809
     22          1           0       -2.460643    4.795025   -0.229027
     23          1           0       -3.344400    3.482475    0.119330
     24          1           0       -1.962551    3.763826    0.917141
     25          1           0       -0.710188    3.121088   -2.670583
 ---------------------------------------------------------------------
                    Distance matrix (angstroms):
                    1          2          3          4          5
     1  C    0.000000
     2  C    1.300000   0.000000
     3  C    2.251666   1.300000   0.000000
     4  C    2.600000   2.251666   1.300000   0.000000
     5  C    2.251666   2.600000   2.251666   1.300000   0.000000
     6  C    1.300000   2.251413   2.599781   2.251666   1.300438
     7  F    1.400000   2.338803   3.534119   4.000000   3.534119
     8  H    1.997498   1.000000   1.997498   3.157531   3.600000
     9  H    3.157531   1.997498   1.000000   1.997498   3.157531
    10  H    3.600000   3.157531   1.997498   1.000000   1.997498
    11  H    3.157531   3.600000   3.157531   1.997498   1.000000
    12  H    1.997498   3.157531   3.600000   3.157531   1.997498
    13  O    4.200000   4.978956   6.252200   6.800000   6.252200
    14  C    5.399999   6.154242   7.436040   7.999998   7.435406
    15  H    5.963219   6.702621   7.977790   8.544002   7.977144
    16  H    5.963219   6.702621   7.977790   8.544002   7.977144
    17  H    2.735905   3.387292   4.410317   4.841433   4.410317
    18  N    3.634747   4.174881   5.085102   5.483489   5.084329
    19  C    4.401805   5.133279   5.922328   6.068171   5.463335
    20  O    5.561982   6.194426   6.902784   7.034960   6.485013
    21  C    4.525251   4.701148   5.556648   6.166765   6.033746
    22  H    5.394393   5.602227   6.372066   6.894639   6.726854
    23  H    4.829791   4.970576   5.954995   6.696086   6.592255
    24  H    4.342712   4.261992   4.977078   5.663267   5.724261
    25  H    4.168641   5.100106   5.870430   5.854853   5.064167
                    6          7          8          9         10
     6  C    0.000000
     7  F    2.338803   0.000000
     8  H    3.157212   2.523886   0.000000
     9  H    3.599720   4.334743   2.300000   0.000000
    10  H    3.157531   5.000000   3.983717   2.300000   0.000000
    11  H    1.998003   4.334743   4.600000   3.983717   2.300000
    12  H    1.001007   2.523886   3.983717   4.600000   3.983717
    13  O    4.978956   2.800000   4.784349   6.941902   7.800000
    14  C    6.153476   3.999999   5.897315   8.099279   8.999998
    15  H    6.706212   4.582574   6.428771   8.628389   9.539390
    16  H    6.697491   4.582574   6.428771   8.628389   9.539390
    17  H    3.408028   2.120000   3.464912   5.110678   5.759839
    18  N    4.198707   3.119999   4.217923   5.718660   6.336577
    19  C    4.623479   3.947334   5.348399   6.636196   6.865349
    20  O    5.754257   5.152132   6.368187   7.547706   7.760620
    21  C    5.280885   4.077660   4.494303   5.977016   6.955531
    22  H    6.029500   4.977158   5.445367   6.779475   7.630663
    23  H    5.738965   4.164638   4.592888   6.334296   7.530665
    24  H    5.139325   4.164638   4.018482   5.276080   6.383940
    25  H    4.172235   3.725136   5.454502   6.686039   6.661829
                   11         12         13         14         15
    11  H    0.000000
    12  H    2.300000   0.000000
    13  O    6.941902   4.784349   0.000000
    14  C    8.098249   5.895900   1.200000   0.000000
    15  H    8.627332   6.427353   1.907878   1.000000   0.000000
    16  H    8.627332   6.427353   1.907878   1.000000   1.732051
    17  H    5.110678   3.464912   3.205129   4.189191   4.308714
    18  N    5.717444   4.216274   3.813189   4.626027   4.531715
    19  C    5.898577   4.399942   4.444386   5.131795   4.923833
    20  O    6.860940   5.537006   5.433427   5.965992   5.585274
    21  C    6.745971   5.475597   4.548201   5.218310   4.992341
    22  H    7.360944   6.154205   5.279900   5.832022   5.464628
    23  H    7.366806   5.936425   4.139910   4.675284   4.403461
    24  H    6.479471   5.504064   5.106304   5.884152   5.767473
    25  H    5.394931   3.762148   4.316802   5.046363   4.950636
                   16         17         18         19         20
    16  H    0.000000
    17  H    5.079109   0.000000
    18  N    5.583926   1.000000   0.000000
    19  C    6.092232   2.019591   1.330000   0.000000
    20  O    6.946461   3.136564   2.252403   1.230000   0.000000
    21  C    6.179691   2.152898   1.450000   2.391174   2.708605
    22  H    6.817082   2.936317   2.031644   2.451165   2.277737
    23  H    5.608397   2.497892   2.031644   3.047165   3.392221
    24  H    6.804559   2.497892   2.031644   3.047165   3.392221
    25  H    5.943111   2.221144   1.956573   1.000000   1.965877
                   21         22         23         24         25
    21  C    0.000000
    22  H    1.000000   0.000000
    23  H    1.000000   1.620237   0.000000
    24  H    1.000000   1.620237   1.620237   0.000000
    25  H    3.265787   3.439091   3.853996   3.853996   0.000000
 Stoichiometry    C9H12FNO2
 Framework group  C1[X(C9H12FNO2)]
 Deg. of freedom    69
 Full point group                 C1      NOp   1
 Largest Abelian subgroup         C1      NOp   1
 Largest concise Abelian subgroup C1      NOp   1
                         Standard orientation:                         
 ---------------------------------------------------------------------
 Center     Atomic      Atomic             Coordinates (Angstroms)
 Number     Number       Type             X           Y           Z
 ---------------------------------------------------------------------
      1          6           0       -1.478032    0.684443   -0.051588
      2          6           0       -2.104132    0.515941    1.075180
      3          6           0       -3.275438   -0.047817    1.089957
      4          6           0       -3.820644   -0.443073   -0.022033
      5          6           0       -3.194545   -0.274571   -1.148801
      6          6           0       -2.037845    0.319455   -1.166663
      7          9           0       -0.216625    1.291568   -0.067502
      8          1           0       -1.684742    0.819984    1.930557
      9          1           0       -3.757053   -0.177434    1.956702
     10          1           0       -4.721649   -0.876733   -0.010666
     11          1           0       -3.613934   -0.578614   -2.004178
     12          1           0       -1.541623    0.418805   -2.030323
     13          8           0        2.306188    2.505816   -0.099330
     14          6           0        3.387467    3.025997   -0.115053
     15          1           0        4.212376    2.467341   -0.028858
     16          1           0        3.463577    4.018274   -0.213001
     17          1           0        1.017658   -0.418262    0.150277
     18          7           0        1.599928   -1.224960    0.251268
     19          6           0        2.021682   -1.868229   -0.833734
     20          8           0        2.739153   -2.866281   -0.788708
     21          6           0        2.003111   -1.720845    1.552822
     22          1           0        2.581073   -2.531467    1.458734
     23          1           0        2.519573   -1.024918    2.051772
     24          1           0        1.203544   -1.968806    2.099822
     25          1           0        1.698865   -1.461645   -1.688414
 ---------------------------------------------------------------------
 Rotational constants (GHZ):           0.7642922           0.3965404           0.3045691
 Standard basis: 6-311++G(d,p) (5D, 7F)
 There are   383 symmetry adapted cartesian basis functions of A   symmetry.
 There are   370 symmetry adapted basis functions of A   symmetry.
   370 basis functions,   576 primitive gaussians,   383 cartesian basis functions
    49 alpha electrons       49 beta electrons
       nuclear repulsion energy       746.7549931467 Hartrees.
 NAtoms=   25 NActive=   25 NUniq=   25 SFac= 1.00D+00 NAtFMM=   60 NAOKFM=F Big=F
 Integral buffers will be    131072 words long.
 Raffenetti 2 integral format.
 Two-electron integral symmetry is turned on.
 Force inversion solution in PCM.
 ------------------------------------------------------------------------------
 Polarizable Continuum Model (PCM)
 =================================
 Model                : PCM.
 Atomic radii         : UFF (Universal Force Field).
 Polarization charges : Total charges.
 Charge compensation  : None.
 Solution method      : Matrix inversion.
 Cavity type          : Scaled VdW (van der Waals Surface) (Alpha=1.100).
 Cavity algorithm     : GePol (No added spheres)
                        Default sphere list used, NSphG=   25.
                        Lebedev-Laikov grids with approx.  5.0 points / Ang**2.
                        Smoothing algorithm: York/Karplus (Gamma=1.0000).
                        Polarization charges: spherical gaussians, with
                                              point-specific exponents (IZeta= 3).
                        Self-potential: point-specific (ISelfS= 7).
                        Self-field    : sphere-specific E.n sum rule (ISelfD= 2).
 1st derivatives      : Analytical E(r).r(x)/FMM algorithm (CHGder, D1EAlg=3).
                        Cavity 1st derivative terms included.
 2nd derivatives      : Analytical E(r).r(xy)/FMM algorithm (CHGder, D2EAlg=3).
                        Cavity 2nd derivative terms included.
 Solvent              : Chloroform, Eps=   4.711300 Eps(inf)=   2.090627
 ------------------------------------------------------------------------------
 One-electron integrals computed using PRISM.
 NBasis=   370 RedAO= T EigKep=  3.60D-06  NBF=   370
 NBsUse=   369 1.00D-06 EigRej=  5.51D-07 NBFU=   369
 ExpMin= 3.60D-02 ExpMax= 1.14D+04 ExpMxC= 1.72D+03 IAcc=3 IRadAn=         5 AccDes= 0.00D+00
 Harris functional with IExCor= 1009 and IRadAn=       5 diagonalized for initial guess.
 HarFok:  IExCor= 1009 AccDes= 0.00D+00 IRadAn=         5 IDoV= 1 UseB2=F ITyADJ=14
 ICtDFT=  3500011 ScaDFX=  1.000000  1.000000  1.000000  1.000000
 FoFCou: FMM=F IPFlag=           0 FMFlag=      100000 FMFlg1=           0
         NFxFlg=           0 DoJE=T BraDBF=F KetDBF=T FulRan=T
         wScrn=  0.000000 ICntrl=       500 IOpCl=  0 I1Cent=   200000004 NGrid=           0
         NMat0=    1 NMatS0=      1 NMatT0=    0 NMatD0=    1 NMtDS0=    0 NMtDT0=    0
 Petite list used in FoFCou.
 Requested convergence on RMS density matrix=1.00D-08 within 128 cycles.
 Requested convergence on MAX density matrix=1.00D-06.
 Requested convergence on             energy=1.00D-06.
 No special actions if energy rises.
 Inv3:  Mode=1 IEnd=    16188987.
 Iteration    1 A*A^-1 deviation from unit magnitude is 2.89D-15 for    117.
 Iteration    1 A*A^-1 deviation from orthogonality  is 1.99D-15 for   2313    850.
 Iteration    1 A^-1*A deviation from unit magnitude is 2.89D-15 for    117.
 Iteration    1 A^-1*A deviation from orthogonality  is 2.11D-15 for   2315   2256.
 Error on total polarization charges =  0.01007
 SCF Done:  E(RM062X) =  -654.993568366     A.U. after   14 cycles
            NFock= 14  Conv=0.35D-08     -V/T= 1.9986
 DoSCS=F DFT=T ScalE2(SS,OS)=  1.000000  1.000000
 Range of M.O.s used for correlation:     1   369
 NBasis=   370 NAE=    49 NBE=    49 NFC=     0 NFV=     0
 NROrb=    369 NOA=    49 NOB=    49 NVA=   320 NVB=   320

 **** Warning!!: The largest alpha MO coefficient is  0.12047513D+03

 Symmetrizing basis deriv contribution to polar:
 IMax=3 JMax=2 DiffMx= 0.00D+00
 G2DrvN: will do    26 centers at a time, making    1 passes.
 Calling FoFCou, ICntrl=  3107 FMM=F I1Cent=   0 AccDes= 0.00D+00.
 NEqPCM:  Using equilibrium solvation (IEInf=0, Eps=   4.7113, EpsInf=   2.0906)
 G2PCM: DoFxE=T DoFxN=T DoGrad=T DoDP/DQ/DG/TGxP=FFFF NFrqRd=   0 IEInf=0 SqF1=F DoCFld=F IF1Alg=4.
 End of G2Drv F.D. properties file   721 does not exist.
 End of G2Drv F.D. properties file   722 does not exist.
 End of G2Drv F.D. properties file   788 does not exist.
          IDoAtm=1111111111111111111111111
 NEqPCM:  Using equilibrium solvation (IEInf=0, Eps=   4.7113, EpsInf=   2.0906)
          Differentiating once with respect to electric field.
                with respect to dipole field.
          Differentiating once with respect to nuclear coordinates.
 CalDSu exits because no D1Ps are significant.
          There are    78 degrees of freedom in the 1st order CPHF.  IDoFFX=6 NUNeed=     3.
     75 vectors produced by pass  0 Test12= 2.01D-14 1.28D-09 XBig12= 5.96D+01 3.38D+00.
 AX will form    75 AO Fock derivatives at one time.
     75 vectors produced by pass  1 Test12= 2.01D-14 1.28D-09 XBig12= 7.44D+00 3.62D-01.
     75 vectors produced by pass  2 Test12= 2.01D-14 1.28D-09 XBig12= 9.57D-02 6.73D-02.
     75 vectors produced by pass  3 Test12= 2.01D-14 1.28D-09 XBig12= 8.59D-04 6.19D-03.
     75 vectors produced by pass  4 Test12= 2.01D-14 1.28D-09 XBig12= 4.19D-06 2.54D-04.
     74 vectors produced by pass  5 Test12= 2.01D-14 1.28D-09 XBig12= 2.09D-08 1.99D-05.
     58 vectors produced by pass  6 Test12= 2.01D-14 1.28D-09 XBig12= 6.32D-11 7.26D-07.
      8 vectors produced by pass  7 Test12= 2.01D-14 1.28D-09 XBig12= 1.97D-13 6.23D-08.
      3 vectors produced by pass  8 Test12= 2.01D-14 1.28D-09 XBig12= 6.31D-16 4.37D-09.
 InvSVY:  IOpt=1 It=  1 EMax= 8.88D-15
 Solved reduced A of dimension   518 with    78 vectors.
 Isotropic polarizability for W=    0.000000      121.45 Bohr**3.
 End of Minotr F.D. properties file   721 does not exist.
 End of Minotr F.D. properties file   722 does not exist.
 End of Minotr F.D. properties file   788 does not exist.

 **********************************************************************

            Population analysis using the SCF Density.

 **********************************************************************

 Orbital symmetries:
       Occupied  (A) (A) (A) (A) (A) (A) (A) (A) (A) (A) (A) (A)
                 (A) (A) (A) (A) (A) (A) (A) (A) (A) (A) (A) (A)
                 (A) (A) (A) (A) (A) (A) (A) (A) (A) (A) (A) (A)
                 (A) (A) (A) (A) (A) (A) (A) (A) (A) (A) (A) (A)
                 (A)
       Virtual   (A) (A) (A) (A) (A) (A) (A) (A) (A) (A) (A) (A)
                 (A) (A) (A) (A) (A) (A) (A) (A) (A) (A) (A) (A)
                 (A) (A) (A) (A) (A) (A) (A) (A) (A) (A) (A) (A)
                 (A) (A) (A) (A) (A) (A) (A) (A) (A) (A) (A) (A)
                 (A) (A) (A) (A) (A) (A) (A) (A) (A) (A) (A) (A)
                 (A) (A) (A) (A) (A) (A) (A) (A) (A) (A) (A) (A)
                 (A) (A) (A) (A) (A) (A) (A) (A) (A) (A) (A) (A)
                 (A) (A) (A) (A) (A) (A) (A) (A) (A) (A) (A) (A)
                 (A) (A) (A) (A) (A) (A) (A) (A) (A) (A) (A) (A)
                 (A) (A) (A) (A) (A) (A) (A) (A) (A) (A) (A) (A)
                 (A) (A) (A) (A) (A) (A) (A) (A) (A) (A) (A) (A)
                 (A) (A) (A) (A) (A) (A) (A) (A) (A) (A) (A) (A)
                 (A) (A) (A) (A) (A) (A) (A) (A) (A) (A) (A) (A)
                 (A) (A) (A) (A) (A) (A) (A) (A) (A) (A) (A) (A)
                 (A) (A) (A) (A) (A) (A) (A) (A) (A) (A) (A) (A)
                 (A) (A) (A) (A) (A) (A) (A) (A) (A) (A) (A) (A)
                 (A) (A) (A) (A) (A) (A) (A) (A) (A) (A) (A) (A)
                 (A) (A) (A) (A) (A) (A) (A) (A) (A) (A) (A) (A)
                 (A) (A) (A) (A) (A) (A) (A) (A) (A) (A) (A) (A)
                 (A) (A) (A) (A) (A) (A) (A) (A) (A) (A) (A) (A)
                 (A) (A) (A) (A) (A) (A) (A) (A) (A) (A) (A) (A)
                 (A) (A) (A) (A) (A) (A) (A) (A) (A) (A) (A) (A)
                 (A) (A) (A) (A) (A) (A) (A) (A) (A) (A) (A) (A)
                 (A) (A) (A) (A) (A) (A) (A) (A) (A) (A) (A) (A)
                 (A) (A) (A) (A) (A) (A) (A) (A) (A) (A) (A) (A)
                 (A) (A) (A) (A) (A) (A) (A) (A) (A) (A) (A) (A)
                 (A) (A) (A) (A) (A) (A) (A) (A)
 The electronic state is 1-A.
 Alpha  occ. eigenvalues --  -25.25259 -19.63842 -19.58735 -14.77109 -10.62799
 Alpha  occ. eigenvalues --  -10.61590 -10.61445 -10.53462 -10.52607 -10.52603
 Alpha  occ. eigenvalues --  -10.52371 -10.52359 -10.51626  -1.35793  -1.19024
 Alpha  occ. eigenvalues --   -1.15791  -1.03547  -1.03335  -0.89528  -0.88605
 Alpha  occ. eigenvalues --   -0.83159  -0.75053  -0.73969  -0.72499  -0.69223
 Alpha  occ. eigenvalues --   -0.66531  -0.64571  -0.60519  -0.59202  -0.58808
 Alpha  occ. eigenvalues --   -0.56879  -0.54158  -0.54057  -0.53884  -0.53465
 Alpha  occ. eigenvalues --   -0.52729  -0.50052  -0.49216  -0.47999  -0.47424
 Alpha  occ. eigenvalues --   -0.47009  -0.45908  -0.44649  -0.42250  -0.35000
 Alpha  occ. eigenvalues --   -0.34074  -0.33913  -0.33063  -0.32072
 Alpha virt. eigenvalues --   -0.00601  -0.00438   0.00563   0.00838   0.01603
 Alpha virt. eigenvalues --    0.02099   0.02239   0.02780   0.02965   0.03349
 Alpha virt. eigenvalues --    0.04149   0.04228   0.04618   0.05310   0.05462
 Alpha virt. eigenvalues --    0.06517   0.07086   0.07585   0.07789   0.08785
 Alpha virt. eigenvalues --    0.09223   0.09607   0.09846   0.11286   0.11478
 Alpha virt. eigenvalues --    0.11640   0.11963   0.12578   0.13090   0.13366
 Alpha virt. eigenvalues --    0.13843   0.14024   0.14048   0.14424   0.14957
 Alpha virt. eigenvalues --    0.15267   0.15440   0.15850   0.16155   0.16734
 Alpha virt. eigenvalues --    0.17281   0.17744   0.18502   0.18742   0.19108
 Alpha virt. eigenvalues --    0.19449   0.20285   0.20958   0.21200   0.21779
 Alpha virt. eigenvalues --    0.22317   0.22887   0.23533   0.24001   0.25533
 Alpha virt. eigenvalues --    0.25755   0.26308   0.27038   0.27108   0.27257
 Alpha virt. eigenvalues --    0.28243   0.29122   0.30445   0.30736   0.31587
 Alpha virt. eigenvalues --    0.32222   0.32644   0.32887   0.33422   0.34492
 Alpha virt. eigenvalues --    0.34635   0.35898   0.36142   0.36474   0.37406
 Alpha virt. eigenvalues --    0.37879   0.39035   0.40109   0.40691   0.41355
 Alpha virt. eigenvalues --    0.42781   0.43595   0.44181   0.45196   0.45895
 Alpha virt. eigenvalues --    0.47958   0.49481   0.51001   0.52131   0.53672
 Alpha virt. eigenvalues --    0.54618   0.55445   0.56325   0.57483   0.58515
 Alpha virt. eigenvalues --    0.59359   0.60323   0.60874   0.61258   0.61803
 Alpha virt. eigenvalues --    0.62045   0.62563   0.63991   0.65162   0.65512
 Alpha virt. eigenvalues --    0.66287   0.67816   0.68794   0.70339   0.71057
 Alpha virt. eigenvalues --    0.72121   0.73310   0.74250   0.75517   0.76140
 Alpha virt. eigenvalues --    0.76531   0.76848   0.79684   0.80427   0.81353
 Alpha virt. eigenvalues --    0.81481   0.83424   0.85340   0.86370   0.86864
 Alpha virt. eigenvalues --    0.89317   0.89806   0.91355   0.92820   0.94121
 Alpha virt. eigenvalues --    0.94986   0.98354   0.99991   1.00612   1.01593
 Alpha virt. eigenvalues --    1.02003   1.03182   1.05435   1.07214   1.08499
 Alpha virt. eigenvalues --    1.08833   1.10031   1.10632   1.11434   1.12975
 Alpha virt. eigenvalues --    1.16559   1.16687   1.17455   1.19072   1.20681
 Alpha virt. eigenvalues --    1.21824   1.22872   1.23967   1.25242   1.27544
 Alpha virt. eigenvalues --    1.29440   1.30858   1.35241   1.36498   1.36631
 Alpha virt. eigenvalues --    1.38122   1.43028   1.51872   1.52591   1.53615
 Alpha virt. eigenvalues --    1.54237   1.55904   1.57977   1.58826   1.61934
 Alpha virt. eigenvalues --    1.62370   1.62685   1.63598   1.64281   1.65315
 Alpha virt. eigenvalues --    1.66308   1.67979   1.68233   1.70145   1.70660
 Alpha virt. eigenvalues --    1.72334   1.73685   1.74562   1.76086   1.76436
 Alpha virt. eigenvalues --    1.76960   1.80173   1.81947   1.83048   1.85074
 Alpha virt. eigenvalues --    1.85320   1.85564   1.86140   1.86693   1.90793
 Alpha virt. eigenvalues --    1.92838   1.94363   1.97239   1.98288   1.99184
 Alpha virt. eigenvalues --    2.03601   2.03654   2.04758   2.05509   2.06667
 Alpha virt. eigenvalues --    2.08309   2.12395   2.14133   2.15332   2.15826
 Alpha virt. eigenvalues --    2.17478   2.17672   2.20219   2.21630   2.24053
 Alpha virt. eigenvalues --    2.27044   2.37115   2.40201   2.40725   2.41937
 Alpha virt. eigenvalues --    2.46482   2.48619   2.50609   2.51301   2.53977
 Alpha virt. eigenvalues --    2.56789   2.58340   2.58507   2.62125   2.63897
 Alpha virt. eigenvalues --    2.64520   2.67262   2.69536   2.70652   2.71124
 Alpha virt. eigenvalues --    2.72467   2.75308   2.76909   2.77271   2.78165
 Alpha virt. eigenvalues --    2.78920   2.79508   2.81415   2.84784   2.86352
 Alpha virt. eigenvalues --    2.86477   2.88072   2.89713   2.89896   2.90516
 Alpha virt. eigenvalues --    2.94181   2.94949   2.96735   2.98714   2.99505
 Alpha virt. eigenvalues --    3.01288   3.02748   3.04130   3.06952   3.08469
 Alpha virt. eigenvalues --    3.11654   3.24120   3.26978   3.28213   3.35111
 Alpha virt. eigenvalues --    3.39875   3.41876   3.42509   3.44673   3.55509
 Alpha virt. eigenvalues --    3.60156   3.61612   3.64075   3.64680   3.71004
 Alpha virt. eigenvalues --    3.75207   3.76290   3.87203   3.88014   3.89157
 Alpha virt. eigenvalues --    3.96330   3.99820   4.00581   4.04856   4.05238
 Alpha virt. eigenvalues --    4.09016   4.11068   4.11507   4.13055   4.17994
 Alpha virt. eigenvalues --    4.19145   4.26169   4.26324   4.36221   4.94806
 Alpha virt. eigenvalues --    4.95124   4.99661   5.06769   5.11626   5.18009
 Alpha virt. eigenvalues --    5.24729   5.33521   5.83126   5.87038   6.57966
 Alpha virt. eigenvalues --    6.62409   6.88932  23.73768  24.09328  24.17696
 Alpha virt. eigenvalues --   24.26761  24.28012  24.31596  24.54173  24.57177
 Alpha virt. eigenvalues --   24.72542  35.71844  50.07255  50.11926  66.97236
          Condensed to atoms (all electrons):
               1          2          3          4          5          6
     1  C   11.599643  -1.106736  -1.437250  -0.428060  -1.274297  -1.129161
     2  C   -1.106736  13.923644   0.854519  -0.711488   0.193708  -7.491575
     3  C   -1.437250   0.854519   6.099249   0.625598  -0.372841   0.081988
     4  C   -0.428060  -0.711488   0.625598   6.511457   0.547049  -0.567740
     5  C   -1.274297   0.193708  -0.372841   0.547049   6.063506   0.710621
     6  C   -1.129161  -7.491575   0.081988  -0.567740   0.710621  14.008701
     7  F    0.600535  -0.297202  -0.054557   0.029677  -0.067459  -0.290912
     8  H   -0.211252   0.689065  -0.017831  -0.008530   0.020887  -0.139318
     9  H    0.052962  -0.069403   0.404548  -0.114185  -0.023807   0.083356
    10  H    0.022262  -0.022029  -0.059387   0.491999  -0.061475  -0.015869
    11  H    0.059959   0.090172  -0.022606  -0.115636   0.413889  -0.089591
    12  H   -0.257777  -0.169847   0.026524   0.004406  -0.019009   0.731099
    13  O    0.043023  -0.022076  -0.001856  -0.000679  -0.001632  -0.012452
    14  C    0.001656  -0.000947  -0.000044   0.000614  -0.000286  -0.002050
    15  H    0.002081  -0.000885  -0.000284   0.000022  -0.000223  -0.000403
    16  H   -0.002164   0.000876   0.000173  -0.000030   0.000293   0.000455
    17  H   -0.054289   0.000710  -0.013660  -0.007115   0.019033   0.005630
    18  N   -0.018780  -0.012953   0.017578   0.004165   0.001060   0.018624
    19  C    0.032894  -0.030469   0.001820   0.005556  -0.005152   0.016986
    20  O    0.001238  -0.000255  -0.000556   0.000049   0.001034  -0.001061
    21  C   -0.002933   0.042145   0.000288   0.001476  -0.002149  -0.038127
    22  H    0.003531   0.003027   0.000886   0.000018  -0.001175  -0.003307
    23  H    0.006324  -0.004725  -0.001296  -0.000254  -0.000701   0.002596
    24  H    0.001226   0.003680  -0.001755   0.002063   0.001239  -0.003371
    25  H    0.042415   0.006409  -0.000557  -0.000712  -0.012291  -0.016758
               7          8          9         10         11         12
     1  C    0.600535  -0.211252   0.052962   0.022262   0.059959  -0.257777
     2  C   -0.297202   0.689065  -0.069403  -0.022029   0.090172  -0.169847
     3  C   -0.054557  -0.017831   0.404548  -0.059387  -0.022606   0.026524
     4  C    0.029677  -0.008530  -0.114185   0.491999  -0.115636   0.004406
     5  C   -0.067459   0.020887  -0.023807  -0.061475   0.413889  -0.019009
     6  C   -0.290912  -0.139318   0.083356  -0.015869  -0.089591   0.731099
     7  F    9.247691  -0.033980  -0.000849   0.001022  -0.001074  -0.028604
     8  H   -0.033980   0.498418  -0.012666   0.000632   0.002403   0.001012
     9  H   -0.000849  -0.012666   0.481568  -0.013187   0.000421   0.002647
    10  H    0.001022   0.000632  -0.013187   0.487438  -0.013866   0.001217
    11  H   -0.001074   0.002403   0.000421  -0.013866   0.486036  -0.020212
    12  H   -0.028604   0.001012   0.002647   0.001217  -0.020212   0.526832
    13  O    0.004473  -0.000445   0.000074  -0.000010   0.000063  -0.000047
    14  C    0.001227  -0.000009  -0.000036   0.000016  -0.000025  -0.000286
    15  H   -0.000678  -0.000171   0.000002   0.000000   0.000002  -0.000190
    16  H   -0.000528   0.000179  -0.000004  -0.000000  -0.000001   0.000121
    17  H    0.112113  -0.007752   0.001906  -0.001976   0.001146   0.002571
    18  N   -0.027541  -0.001046  -0.000077   0.000133  -0.000164   0.001817
    19  C   -0.014734   0.001329  -0.000181   0.000363  -0.000840   0.000008
    20  O    0.000055   0.000163  -0.000019   0.000001  -0.000009  -0.000064
    21  C   -0.007265   0.003518  -0.000608   0.000195  -0.000038  -0.000238
    22  H   -0.001085   0.000411  -0.000002   0.000017   0.000031  -0.000328
    23  H   -0.001306  -0.000554   0.000136   0.000007  -0.000021   0.000145
    24  H    0.000951  -0.001243  -0.000592   0.000023   0.000035  -0.000509
    25  H   -0.004290   0.000937  -0.000050  -0.000022   0.000307  -0.007223
              13         14         15         16         17         18
     1  C    0.043023   0.001656   0.002081  -0.002164  -0.054289  -0.018780
     2  C   -0.022076  -0.000947  -0.000885   0.000876   0.000710  -0.012953
     3  C   -0.001856  -0.000044  -0.000284   0.000173  -0.013660   0.017578
     4  C   -0.000679   0.000614   0.000022  -0.000030  -0.007115   0.004165
     5  C   -0.001632  -0.000286  -0.000223   0.000293   0.019033   0.001060
     6  C   -0.012452  -0.002050  -0.000403   0.000455   0.005630   0.018624
     7  F    0.004473   0.001227  -0.000678  -0.000528   0.112113  -0.027541
     8  H   -0.000445  -0.000009  -0.000171   0.000179  -0.007752  -0.001046
     9  H    0.000074  -0.000036   0.000002  -0.000004   0.001906  -0.000077
    10  H   -0.000010   0.000016   0.000000  -0.000000  -0.001976   0.000133
    11  H    0.000063  -0.000025   0.000002  -0.000001   0.001146  -0.000164
    12  H   -0.000047  -0.000286  -0.000190   0.000121   0.002571   0.001817
    13  O    8.178182   0.268313  -0.083468  -0.096212   0.050054  -0.006590
    14  C    0.268313   4.818332   0.405532   0.416041  -0.014404   0.002276
    15  H   -0.083468   0.405532   0.693639  -0.138014   0.003279  -0.000581
    16  H   -0.096212   0.416041  -0.138014   0.699572  -0.001179   0.000866
    17  H    0.050054  -0.014404   0.003279  -0.001179   0.671822   0.347472
    18  N   -0.006590   0.002276  -0.000581   0.000866   0.347472   7.159521
    19  C   -0.007649   0.001648   0.000427  -0.000425  -0.151135   0.147487
    20  O    0.000127  -0.000152   0.000012  -0.000022   0.003346  -0.182504
    21  C   -0.004882   0.002070  -0.001078   0.000392  -0.080627   0.164858
    22  H   -0.000070   0.000541  -0.000364   0.000042  -0.032605  -0.101352
    23  H   -0.000415   0.000524  -0.000030  -0.000082  -0.007549  -0.043365
    24  H   -0.000212  -0.000511   0.000359  -0.000136   0.021369  -0.048143
    25  H   -0.001153   0.000398   0.000175  -0.000101  -0.042914  -0.249298
              19         20         21         22         23         24
     1  C    0.032894   0.001238  -0.002933   0.003531   0.006324   0.001226
     2  C   -0.030469  -0.000255   0.042145   0.003027  -0.004725   0.003680
     3  C    0.001820  -0.000556   0.000288   0.000886  -0.001296  -0.001755
     4  C    0.005556   0.000049   0.001476   0.000018  -0.000254   0.002063
     5  C   -0.005152   0.001034  -0.002149  -0.001175  -0.000701   0.001239
     6  C    0.016986  -0.001061  -0.038127  -0.003307   0.002596  -0.003371
     7  F   -0.014734   0.000055  -0.007265  -0.001085  -0.001306   0.000951
     8  H    0.001329   0.000163   0.003518   0.000411  -0.000554  -0.001243
     9  H   -0.000181  -0.000019  -0.000608  -0.000002   0.000136  -0.000592
    10  H    0.000363   0.000001   0.000195   0.000017   0.000007   0.000023
    11  H   -0.000840  -0.000009  -0.000038   0.000031  -0.000021   0.000035
    12  H    0.000008  -0.000064  -0.000238  -0.000328   0.000145  -0.000509
    13  O   -0.007649   0.000127  -0.004882  -0.000070  -0.000415  -0.000212
    14  C    0.001648  -0.000152   0.002070   0.000541   0.000524  -0.000511
    15  H    0.000427   0.000012  -0.001078  -0.000364  -0.000030   0.000359
    16  H   -0.000425  -0.000022   0.000392   0.000042  -0.000082  -0.000136
    17  H   -0.151135   0.003346  -0.080627  -0.032605  -0.007549   0.021369
    18  N    0.147487  -0.182504   0.164858  -0.101352  -0.043365  -0.048143
    19  C    4.960635   0.470805  -0.036709   0.036693  -0.006557  -0.009071
    20  O    0.470805   8.236467  -0.031002   0.038495  -0.003101  -0.004798
    21  C   -0.036709  -0.031002   5.084507   0.437784   0.429101   0.407266
    22  H    0.036693   0.038495   0.437784   0.477140  -0.025444  -0.025754
    23  H   -0.006557  -0.003101   0.429101  -0.025444   0.551692  -0.064347
    24  H   -0.009071  -0.004798   0.407266  -0.025754  -0.064347   0.562877
    25  H    0.454387  -0.032148   0.002312   0.016868  -0.002649  -0.003384
              25
     1  C    0.042415
     2  C    0.006409
     3  C   -0.000557
     4  C   -0.000712
     5  C   -0.012291
     6  C   -0.016758
     7  F   -0.004290
     8  H    0.000937
     9  H   -0.000050
    10  H   -0.000022
    11  H    0.000307
    12  H   -0.007223
    13  O   -0.001153
    14  C    0.000398
    15  H    0.000175
    16  H   -0.000101
    17  H   -0.042914
    18  N   -0.249298
    19  C    0.454387
    20  O   -0.032148
    21  C    0.002312
    22  H    0.016868
    23  H   -0.002649
    24  H   -0.003384
    25  H    0.717864
 Mulliken charges:
               1
     1  C   -0.547051
     2  C    0.132633
     3  C   -0.128689
     4  C   -0.269722
     5  C   -0.129820
     6  C    0.141638
     7  F   -0.165679
     8  H    0.215843
     9  H    0.208046
    10  H    0.182498
    11  H    0.209619
    12  H    0.205936
    13  O   -0.304461
    14  C    0.099563
    15  H    0.120838
    16  H    0.119889
    17  H    0.174755
    18  N   -0.173464
    19  C    0.131886
    20  O   -0.496100
    21  C   -0.370254
    22  H    0.176002
    23  H    0.171873
    24  H    0.162741
    25  H    0.131480
 Sum of Mulliken charges =  -0.00000
 Mulliken charges with hydrogens summed into heavy atoms:
               1
     1  C   -0.547051
     2  C    0.348476
     3  C    0.079357
     4  C   -0.087224
     5  C    0.079799
     6  C    0.347575
     7  F   -0.165679
    13  O   -0.304461
    14  C    0.340290
    18  N    0.001291
    19  C    0.263367
    20  O   -0.496100
    21  C    0.140362
 APT charges:
               1
     1  C    0.726901
     2  C   -0.167761
     3  C    0.002736
     4  C   -0.079814
     5  C    0.003542
     6  C   -0.166457
     7  F   -0.702450
     8  H    0.090077
     9  H    0.061509
    10  H    0.058624
    11  H    0.061695
    12  H    0.089767
    13  O   -0.681010
    14  C    0.674712
    15  H    0.001583
    16  H   -0.002599
    17  H    0.327644
    18  N   -0.848415
    19  C    1.225228
    20  O   -1.006364
    21  C    0.202221
    22  H    0.075509
    23  H    0.018516
    24  H    0.017631
    25  H    0.016978
 Sum of APT charges =  -0.00000
 APT charges with hydrogens summed into heavy atoms:
               1
     1  C    0.726901
     2  C   -0.077685
     3  C    0.064245
     4  C   -0.021190
     5  C    0.065237
     6  C   -0.076691
     7  F   -0.702450
    13  O   -0.681010
    14  C    0.673695
    18  N   -0.520771
    19  C    1.242206
    20  O   -1.006364
    21  C    0.313877
 Electronic spatial extent (au):  <R**2>=           3670.1894
 Charge=             -0.0000 electrons
 Dipole moment (field-independent basis, Debye):
    X=             -2.5949    Y=              4.3720    Z=              1.7132  Tot=              5.3650
 Quadrupole moment (field-independent basis, Debye-Ang):
   XX=            -63.7602   YY=            -87.0235   ZZ=            -67.1904
   XY=             26.6401   XZ=              4.9194   YZ=             -5.2181
 Traceless Quadrupole moment (field-independent basis, Debye-Ang):
   XX=              8.8978   YY=            -14.3655   ZZ=              5.4676
   XY=             26.6401   XZ=              4.9194   YZ=             -5.2181
 Octapole moment (field-independent basis, Debye-Ang**2):
  XXX=             12.8309  YYY=             96.9935  ZZZ=              1.2146  XYY=              4.0032
  XXY=             86.9357  XXZ=             16.9509  XZZ=             -2.3124  YZZ=              3.6461
  YYZ=             18.1571  XYZ=            -21.5700
 Hexadecapole moment (field-independent basis, Debye-Ang**3):
 XXXX=          -2700.8835 YYYY=          -1369.8696 ZZZZ=           -425.4101 XXXY=            429.3444
 XXXZ=             34.8964 YYYX=            327.7227 YYYZ=            -66.1745 ZZZX=              5.3642
 ZZZY=             -4.4075 XXYY=           -703.7177 XXZZ=           -533.3757 YYZZ=           -302.3593
 XXYZ=            -52.5319 YYXZ=             49.9072 ZZXY=             13.4402
 N-N= 7.467549931467D+02 E-N=-3.029981882262D+03  KE= 6.559064977109D+02
  Exact polarizability: 133.504   9.323 104.681  -4.091   6.842 126.175
 Approx polarizability: 134.645  10.957 108.934  -4.102   6.832 129.498
 D2PCM: PCM CHGder 2nd derivatives, FixD1E=F FixD2E=F DoIter=F DoCFld=F I1PDM=0
 Calling FoFJK, ICntrl=    100127 FMM=F ISym2X=0 I1Cent= 0 IOpClX= 0 NMat=1 NMatS=1 NMatT=0.
 ***** Axes restored to original set *****
 -------------------------------------------------------------------
 Center     Atomic                   Forces (Hartrees/Bohr)
 Number     Number              X              Y              Z
 -------------------------------------------------------------------
      1        6          -0.089046853   -0.004146215   -0.051385838
      2        6          -0.053352184    0.001179499    0.015216542
      3        6           0.002654909    0.000046845    0.037306801
      4        6           0.039368209    0.000572620    0.022711945
      5        6           0.033181288   -0.002428912   -0.016490437
      6        6          -0.013046983    0.003600199   -0.054714807
      7        9           0.024562450    0.001973510    0.014158388
      8        1          -0.065632340    0.000237445    0.035911377
      9        1          -0.001646726   -0.000159605    0.073825335
     10        1           0.064285366    0.000589515    0.037116998
     11        1           0.063090079    0.000416332   -0.038346139
     12        1          -0.001706814   -0.001008106   -0.073845456
     13        8           0.014286221    0.000268374    0.008342643
     14        6           0.062490816    0.000161359    0.036286786
     15        1          -0.039285426    0.071689412   -0.022796159
     16        1          -0.039245953   -0.071699919   -0.022774224
     17        1          -0.001854608   -0.009833047    0.001448999
     18        7          -0.003525451    0.012948217    0.004250066
     19        6          -0.036888560    0.055882234    0.044361559
     20        8           0.004777013   -0.004610303   -0.006852732
     21        6           0.031146487   -0.043902591   -0.038682752
     22        1          -0.000138362    0.070619838   -0.024566541
     23        1          -0.073008330   -0.029131124    0.005674691
     24        1           0.037016278   -0.006597786    0.069314347
     25        1           0.041519475   -0.046667794   -0.055471392
 -------------------------------------------------------------------
 Cartesian Forces:  Max     0.089046853 RMS     0.037611519
 -----------------------------------------------------------------------------------------------
                       Internal Coordinate Forces (Hartree/Bohr or radian)
  Cent   Atom   N1       Length/X         N2         Alpha/Y        N3         Beta/Z          J
 -----------------------------------------------------------------------------------------------
      1  C 
      2  C        1   0.167252(     1)
      3  C        2   0.232075(     2)      1   0.492915(    25)
      4  C        3   0.170644(     3)      2   0.489557(    26)      1  -0.005410(    48)     0
      5  C        4   0.054837(     4)      3   0.233361(    27)      2  -0.004282(    49)     0
      6  C        1   0.051395(     5)      2   0.294835(    28)      3  -0.004292(    50)     0
      7  F        1  -0.027261(     6)      2   0.000145(    29)      3  -0.001210(    51)     0
      8  H        2   0.074795(     7)      1  -0.003243(    30)      6  -0.000389(    52)     0
      9  H        3   0.073825(     8)      2  -0.003112(    31)      1   0.000261(    53)     0
     10  H        4   0.074231(     9)      3  -0.000003(    32)      2  -0.000965(    54)     0
     11  H        5   0.073811(    10)      4   0.003144(    33)      3  -0.000681(    55)     0
     12  H        6   0.073769(    11)      1  -0.002933(    34)      2  -0.005866(    56)     0
     13  O        1   0.001990(    12)      2  -0.000368(    35)      3   0.003104(    57)     0
     14  C       13   0.018533(    13)      1  -0.000126(    36)      2  -0.000002(    58)     0
     15  H       14   0.084795(    14)     13   0.006596(    37)      1   0.000125(    59)     0
     16  H       14   0.084782(    15)     13   0.006512(    38)      1  -0.000126(    60)     0
     17  H        7  -0.001083(    16)      1   0.003189(    39)      2  -0.000018(    61)     0
     18  N       17   0.008451(    17)      7  -0.000107(    40)      1  -0.000159(    62)     0
     19  C       18   0.019948(    18)     17  -0.027680(    41)      7  -0.000155(    63)     0
     20  O       19  -0.004102(    19)     18   0.020022(    42)     17  -0.000196(    64)     0
     21  C       18   0.005889(    20)     17  -0.031623(    43)     19  -0.000229(    65)     0
     22  H       21   0.074466(    21)     18  -0.012747(    44)     17  -0.000085(    66)     0
     23  H       21   0.078770(    22)     18  -0.004775(    45)     17   0.000196(    67)     0
     24  H       21   0.078820(    23)     18  -0.004509(    46)     17  -0.000101(    68)     0
     25  H       19   0.083455(    24)     18   0.007093(    47)     17   0.000013(    69)     0
 -----------------------------------------------------------------------------------------------
 Internal  Forces:  Max     0.492915117 RMS     0.108457598

 GradGradGradGradGradGradGradGradGradGradGradGradGradGradGradGradGradGrad
 Berny optimization.
 Search for a local minimum.
 Step number   1 out of a maximum of   50
 All quantities printed in internal units (Hartrees-Bohrs-Radians)
 Second derivative matrix not updated -- analytic derivatives used.
 ITU=  0
     Eigenvalues ---    0.00366   0.00468   0.31484   0.36905   0.50268
     Eigenvalues ---    0.51710   0.56876   0.57061   0.57097   0.57252
     Eigenvalues ---    0.57339   0.57345   0.57414   0.57431   0.57448
     Eigenvalues ---    0.57488   0.57891   0.58002   0.75709   0.80962
     Eigenvalues ---    0.81092   0.96192   1.02052   2.23098
 RFO step:  Lambda=-1.70467517D-01 EMin= 3.66290465D-03
 Linear search not attempted -- first point.
 Maximum step size (   0.300) exceeded in Quadratic search.
    -- Step size scaled by   0.690
 Variable       Old X    -DE/DX   Delta X   Delta X   Delta X     New X
                                 (Linear)    (Quad)   (Total)
    B1        2.45664   0.16725   0.00000   0.08051   0.08051   2.53715
    B2        2.45664   0.23208   0.00000   0.08338   0.08338   2.54002
    B3        2.45664   0.17064   0.00000   0.08034   0.08034   2.53699
    B4        2.45664   0.05484   0.00000   0.07330   0.07330   2.52994
    B5        2.45664   0.05140   0.00000   0.07317   0.07317   2.52981
    B6        2.64562  -0.02726   0.00000  -0.04813  -0.04813   2.59749
    B7        1.88973   0.07479   0.00000   0.06834   0.06834   1.95807
    B8        1.88973   0.07383   0.00000   0.06747   0.06747   1.95720
    B9        1.88973   0.07423   0.00000   0.06786   0.06786   1.95759
   B10        1.88973   0.07381   0.00000   0.06749   0.06749   1.95722
   B11        1.89163   0.07377   0.00000   0.06760   0.06760   1.95923
   B12        7.93685   0.00199   0.00000   0.00567   0.00567   7.94252
   B13        2.26767   0.01853   0.00000   0.00688   0.00688   2.27455
   B14        1.88973   0.08479   0.00000   0.07807   0.07807   1.96780
   B15        1.88973   0.08478   0.00000   0.07806   0.07806   1.96779
   B16        4.00622  -0.00108   0.00000  -0.00249  -0.00249   4.00373
   B17        1.88973   0.00845   0.00000   0.00825   0.00825   1.89798
   B18        2.51334   0.01995   0.00000   0.01985   0.01985   2.53319
   B19        2.32436  -0.00410   0.00000  -0.00775  -0.00775   2.31662
   B20        2.74010   0.00589   0.00000   0.00441   0.00441   2.74452
   B21        1.88973   0.07447   0.00000   0.06870   0.06870   1.95843
   B22        1.88973   0.07877   0.00000   0.07296   0.07296   1.96269
   B23        1.88973   0.07882   0.00000   0.07304   0.07304   1.96277
   B24        1.88973   0.08345   0.00000   0.07695   0.07695   1.96667
         Item               Value     Threshold  Converged?
 Maximum Force            0.232075     0.000450     NO 
 RMS     Force            0.087788     0.000300     NO 
 Maximum Displacement     0.083379     0.001800     NO 
 RMS     Displacement     0.061237     0.001200     NO 
 Predicted change in Energy=-8.472579D-02
 GradGradGradGradGradGradGradGradGradGradGradGradGradGradGradGradGradGrad

 ---------------------------------------------------------------------------------------------------
                            Z-MATRIX (ANGSTROMS AND DEGREES)
   CD    Cent   Atom    N1       Length/X        N2       Alpha/Y        N3        Beta/Z          J
 ---------------------------------------------------------------------------------------------------
      1      1  C 
      2      2  C        1   1.342603(     1)
      3      3  C        2   1.344122(     2)      1  120.000(    25)
      4      4  C        3   1.342515(     3)      2  120.000(    26)      1    0.000(    48)      0
      5      5  C        4   1.338788(     4)      3  120.000(    27)      2    0.000(    49)      0
      6      6  C        1   1.338719(     5)      2  119.978(    28)      3    1.717(    50)      0
      7      7  F        1   1.374530(     6)      2  120.000(    29)      3 -180.000(    51)      0
      8      8  H        2   1.036164(     7)      1  120.000(    30)      6 -178.283(    52)      0
      9      9  H        3   1.035706(     8)      2  120.000(    31)      1  180.000(    53)      0
     10     10  H        4   1.035910(     9)      3  120.000(    32)      2  180.000(    54)      0
     11     11  H        5   1.035715(    10)      4  120.000(    33)      3  180.000(    55)      0
     12     12  H        6   1.036781(    11)      1  119.916(    34)      2 -177.772(    56)      0
     13     13  O        1   4.203001(    12)      2  120.000(    35)      3 -180.000(    57)      0
     14     14  C       13   1.203642(    13)      1  179.900(    36)      2  180.000(    58)      0
     15     15  H       14   1.041315(    14)     13  120.000(    37)      1  -90.045(    59)      0
     16     16  H       14   1.041308(    15)     13  120.000(    38)      1   90.045(    60)      0
     17     17  H        7   2.118685(    16)      1  100.000(    39)      2   90.000(    61)      0
     18     18  N       17   1.004365(    17)      7  179.900(    40)      1   90.000(    62)      0
     19     19  C       18   1.340506(    18)     17  119.500(    41)      7    0.000(    63)      0
     20     20  O       19   1.225900(    19)     18  123.200(    42)     17 -180.000(    64)      0
     21     21  C       18   1.452335(    20)     17  121.900(    43)     19 -180.000(    65)      0
     22     22  H       21   1.036356(    21)     18  110.700(    44)     17 -180.000(    66)      0
     23     23  H       21   1.038608(    22)     18  110.700(    45)     17  -60.000(    67)      0
     24     24  H       21   1.038651(    23)     18  110.700(    46)     17   60.000(    68)      0
     25     25  H       19   1.040718(    24)     18  113.467(    47)     17    0.000(    69)      0
 ---------------------------------------------------------------------------------------------------
                         Z-Matrix orientation:                         
 ---------------------------------------------------------------------
 Center     Atomic      Atomic             Coordinates (Angstroms)
 Number     Number       Type             X           Y           Z
 ---------------------------------------------------------------------
      1          6           0        0.000000    0.000000    0.000000
      2          6           0        0.000000    0.000000    1.342603
      3          6           0        1.164044    0.000000    2.014665
      4          6           0        2.326696    0.000000    1.343407
      5          6           0        2.326696    0.000000    0.004619
      6          6           0        1.159104   -0.034750   -0.668908
      7          9           0       -1.190378    0.000000   -0.687265
      8          1           0       -0.897344    0.000000    1.860685
      9          1           0        1.164044    0.000000    3.050370
     10          1           0        3.223821    0.000000    1.861362
     11          1           0        3.223652    0.000000   -0.513239
     12          1           0        1.159366    0.000201   -1.705100
     13          8           0       -3.639906    0.000000   -2.101500
     14          6           0       -4.681239    0.000000   -2.705140
     15          1           0       -5.132040    0.901805   -2.965644
     16          1           0       -5.132037   -0.901800   -2.965642
     17          1           0       -1.508994    2.086497   -0.871218
     18          7           0       -1.659157    3.075603   -0.959939
     19          6           0       -1.174185    3.723665   -2.028477
     20          8           0       -1.317512    4.928287   -2.205042
     21          6           0       -2.390721    3.833531    0.039880
     22          1           0       -2.442016    4.834358   -0.224220
     23          1           0       -3.360005    3.473307    0.137012
     24          1           0       -1.924786    3.765518    0.965663
     25          1           0       -0.664857    3.104965   -2.692473
 ---------------------------------------------------------------------
                    Distance matrix (angstroms):
                    1          2          3          4          5
     1  C    0.000000
     2  C    1.342603   0.000000
     3  C    2.326773   1.344122   0.000000
     4  C    2.686682   2.326697   1.342515   0.000000
     5  C    2.326701   2.683974   2.322078   1.338788   0.000000
     6  C    1.338719   2.321833   2.683803   2.326777   1.348376
     7  F    1.374530   2.353161   3.583815   4.061212   3.584482
     8  H    2.065763   1.036164   2.067131   3.265274   3.720137
     9  H    3.264928   2.066753   1.035706   2.065305   3.260117
    10  H    3.722592   3.265292   2.065474   1.035910   2.062117
    11  H    3.264252   3.719688   3.260717   2.061956   1.035715
    12  H    2.061915   3.260771   3.719767   3.264361   2.070217
    13  O    4.203001   5.011064   6.326195   6.889683   6.327407
    14  C    5.406642   6.188556   7.512915   8.093324   7.513584
    15  H    5.995509   6.761071   8.078205   8.661058   8.078890
    16  H    5.995505   6.761067   8.078201   8.661054   8.078886
    17  H    2.718373   3.395812   4.452743   4.895973   4.453435
    18  N    3.624033   4.184953   5.126213   5.536403   5.126084
    19  C    4.399899   5.158350   5.973273   6.123027   5.500485
    20  O    5.557523   6.213665   6.946370   7.082355   6.515433
    21  C    4.518085   4.701978   5.588568   6.216845   6.078752
    22  H    5.420768   5.638208   6.433295   6.969152   6.794409
    23  H    4.834487   4.980657   6.004703   6.771840   6.664830
    24  H    4.337791   4.245705   4.982008   5.691829   5.760021
    25  H    4.163202   5.134655   5.928139   5.905804   5.085715
                    6          7          8          9         10
     6  C    0.000000
     7  F    2.349811   0.000000
     8  H    3.260220   2.564745   0.000000
     9  H    3.719444   4.417377   2.380057   0.000000
    10  H    3.265966   5.097122   4.121165   2.378323   0.000000
    11  H    2.070700   4.417459   4.755851   4.115980   2.374601
    12  H    1.036781   2.560720   4.116416   4.755472   4.120876
    13  O    5.008395   2.828471   4.818772   7.044126   7.925593
    14  C    6.185228   4.032112   5.929976   8.203245   9.129234
    15  H    6.762442   4.641224   6.483776   8.754790   9.691937
    16  H    6.753164   4.641220   6.483772   8.754787   9.691934
    17  H    3.414581   2.118685   3.491544   5.184347   5.849786
    18  N    4.207326   3.123049   4.242124   5.788988   6.423593
    19  C    4.627996   3.957877   5.391466   6.717715   6.952624
    20  O    5.755439   5.158277   6.402709   7.620071   7.838837
    21  C    5.297852   4.082343   4.499052   6.032857   7.038241
    22  H    6.072399   5.015179   5.486698   6.862771   7.734492
    23  H    5.777398   4.177389   4.593431   6.404572   7.640943
    24  H    5.159869   4.177398   4.004476   5.297736   6.441239
    25  H    4.156857   3.733341   5.515986   6.779818   6.745371
                   11         12         13         14         15
    11  H    0.000000
    12  H    2.383654   0.000000
    13  O    7.044927   4.815615   0.000000
    14  C    8.203153   5.925601   1.203642   0.000000
    15  H    8.754720   6.479480   1.945883   1.041315   0.000000
    16  H    8.754717   6.479532   1.945878   1.041308   1.803605
    17  H    5.184549   3.488286   3.226120   4.216619   4.349320
    18  N    5.787979   4.237621   3.832213   4.651670   4.561706
    19  C    5.958405   4.406157   4.466631   5.159746   4.950333
    20  O    6.911757   5.538132   5.449059   5.987718   5.598365
    21  C    6.820783   5.508402   4.565297   5.241905   5.014282
    22  H    7.453478   6.207417   5.322606   5.877082   5.496963
    23  H    7.472029   5.990038   4.141636   4.678392   4.402182
    24  H    6.547724   5.551809   5.150559   5.937336   5.826020
    25  H    5.432344   3.733933   4.340619   5.076642   4.988413
                   16         17         18         19         20
    16  H    0.000000
    17  H    5.142273   0.000000
    18  N    5.648316   1.004365   0.000000
    19  C    6.159367   2.032650   1.340506   0.000000
    20  O    7.008496   3.145079   2.258194   1.225900   0.000000
    21  C    6.242702   2.158626   1.452335   2.402110   2.718444
    22  H    6.903268   2.973192   2.060915   2.469084   2.279689
    23  H    5.648728   2.523096   2.062608   3.087043   3.431320
    24  H    6.893872   2.523118   2.062640   3.087075   3.431353
    25  H    6.007036   2.250958   1.997791   1.040718   1.997011
                   21         22         23         24         25
    21  C    0.000000
    22  H    1.036356   0.000000
    23  H    1.038608   1.680967   0.000000
    24  H    1.038651   1.681002   1.682826   0.000000
    25  H    3.312879   3.498766   3.924982   3.925011   0.000000
 Stoichiometry    C9H12FNO2
 Framework group  C1[X(C9H12FNO2)]
 Deg. of freedom    69
 Full point group                 C1      NOp   1
 Largest Abelian subgroup         C1      NOp   1
 Largest concise Abelian subgroup C1      NOp   1
                         Standard orientation:                         
 ---------------------------------------------------------------------
 Center     Atomic      Atomic             Coordinates (Angstroms)
 Number     Number       Type             X           Y           Z
 ---------------------------------------------------------------------
      1          6           0       -1.446115    0.712499   -0.054620
      2          6           0       -2.095633    0.547945    1.108837
      3          6           0       -3.312549   -0.022617    1.124321
      4          6           0       -3.878534   -0.427955   -0.023594
      5          6           0       -3.230861   -0.263869   -1.183745
      6          6           0       -2.025222    0.339619   -1.202559
      7          9           0       -0.201670    1.295969   -0.070454
      8          1           0       -1.658802    0.860788    1.994807
      9          1           0       -3.813598   -0.149556    2.021830
     10          1           0       -4.816406   -0.867685   -0.011661
     11          1           0       -3.667503   -0.576576   -2.069331
     12          1           0       -1.509350    0.435069   -2.096807
     13          8           0        2.359117    2.496618   -0.103036
     14          6           0        3.448921    3.007331   -0.118990
     15          1           0        4.301885    2.417155   -0.026896
     16          1           0        3.538736    4.039483   -0.223480
     17          1           0        1.014262   -0.424649    0.152727
     18          7           0        1.590738   -1.240491    0.256783
     19          6           0        2.010337   -1.895849   -0.834729
     20          8           0        2.715262   -2.897647   -0.786634
     21          6           0        1.988207   -1.737969    1.562084
     22          1           0        2.578743   -2.584324    1.467290
     23          1           0        2.531379   -1.019344    2.079046
     24          1           0        1.154600   -1.985669    2.130010
     25          1           0        1.679573   -1.471561   -1.725610
 ---------------------------------------------------------------------
 Rotational constants (GHZ):           0.7525833           0.3896958           0.3006931
 Standard basis: 6-311++G(d,p) (5D, 7F)
 There are   383 symmetry adapted cartesian basis functions of A   symmetry.
 There are   370 symmetry adapted basis functions of A   symmetry.
   370 basis functions,   576 primitive gaussians,   383 cartesian basis functions
    49 alpha electrons       49 beta electrons
       nuclear repulsion energy       736.9117071454 Hartrees.
 NAtoms=   25 NActive=   25 NUniq=   25 SFac= 1.00D+00 NAtFMM=   60 NAOKFM=F Big=F
 Integral buffers will be    131072 words long.
 Raffenetti 2 integral format.
 Two-electron integral symmetry is turned on.
 Force inversion solution in PCM.
 ------------------------------------------------------------------------------
 Polarizable Continuum Model (PCM)
 =================================
 Model                : PCM.
 Atomic radii         : UFF (Universal Force Field).
 Polarization charges : Total charges.
 Charge compensation  : None.
 Solution method      : Matrix inversion.
 Cavity type          : Scaled VdW (van der Waals Surface) (Alpha=1.100).
 Cavity algorithm     : GePol (No added spheres)
                        Default sphere list used, NSphG=   25.
                        Lebedev-Laikov grids with approx.  5.0 points / Ang**2.
                        Smoothing algorithm: York/Karplus (Gamma=1.0000).
                        Polarization charges: spherical gaussians, with
                                              point-specific exponents (IZeta= 3).
                        Self-potential: point-specific (ISelfS= 7).
                        Self-field    : sphere-specific E.n sum rule (ISelfD= 2).
 1st derivatives      : Analytical E(r).r(x)/FMM algorithm (CHGder, D1EAlg=3).
                        Cavity 1st derivative terms included.
 Solvent              : Chloroform, Eps=   4.711300 Eps(inf)=   2.090627
 ------------------------------------------------------------------------------
 One-electron integrals computed using PRISM.
 NBasis=   370 RedAO= T EigKep=  4.82D-06  NBF=   370
 NBsUse=   369 1.00D-06 EigRej=  7.32D-07 NBFU=   369
 Initial guess from the checkpoint file:  "model_H1.chk"
 B after Tr=    -0.000000   -0.000000   -0.000000
         Rot=    0.999987    0.000881    0.000225    0.004933 Ang=   0.57 deg.
 ExpMin= 3.60D-02 ExpMax= 1.14D+04 ExpMxC= 1.72D+03 IAcc=3 IRadAn=         5 AccDes= 0.00D+00
 Harris functional with IExCor= 1009 and IRadAn=       5 diagonalized for initial guess.
 HarFok:  IExCor= 1009 AccDes= 0.00D+00 IRadAn=         5 IDoV= 1 UseB2=F ITyADJ=14
 ICtDFT=  3500011 ScaDFX=  1.000000  1.000000  1.000000  1.000000
 FoFCou: FMM=F IPFlag=           0 FMFlag=      100000 FMFlg1=           0
         NFxFlg=           0 DoJE=T BraDBF=F KetDBF=T FulRan=T
         wScrn=  0.000000 ICntrl=       500 IOpCl=  0 I1Cent=   200000004 NGrid=           0
         NMat0=    1 NMatS0=      1 NMatT0=    0 NMatD0=    1 NMtDS0=    0 NMtDT0=    0
 Petite list used in FoFCou.
 Requested convergence on RMS density matrix=1.00D-08 within 128 cycles.
 Requested convergence on MAX density matrix=1.00D-06.
 Requested convergence on             energy=1.00D-06.
 No special actions if energy rises.
 Inv3:  Mode=1 IEnd=    16793868.
 Iteration    1 A*A^-1 deviation from unit magnitude is 7.99D-15 for   2357.
 Iteration    1 A*A^-1 deviation from orthogonality  is 2.27D-15 for   2271   1667.
 Iteration    1 A^-1*A deviation from unit magnitude is 7.99D-15 for   2357.
 Iteration    1 A^-1*A deviation from orthogonality  is 1.45D-15 for   1676     98.
 Error on total polarization charges =  0.01059
 SCF Done:  E(RM062X) =  -655.080461134     A.U. after   13 cycles
            NFock= 13  Conv=0.67D-08     -V/T= 2.0010
 DoSCS=F DFT=T ScalE2(SS,OS)=  1.000000  1.000000
 Range of M.O.s used for correlation:     1   369
 NBasis=   370 NAE=    49 NBE=    49 NFC=     0 NFV=     0
 NROrb=    369 NOA=    49 NOB=    49 NVA=   320 NVB=   320

 **** Warning!!: The largest alpha MO coefficient is  0.80150214D+02

 Symmetrizing basis deriv contribution to polar:
 IMax=3 JMax=2 DiffMx= 0.00D+00
 D1PCM: PCM CHGder 1st derivatives, ID1Alg=3 FixD1E=F DoIter=F DoCFld=F I1PDM=0.
 Calling FoFJK, ICntrl=      2127 FMM=F ISym2X=0 I1Cent= 0 IOpClX= 0 NMat=1 NMatS=1 NMatT=0.
 ***** Axes restored to original set *****
 -------------------------------------------------------------------
 Center     Atomic                   Forces (Hartrees/Bohr)
 Number     Number              X              Y              Z
 -------------------------------------------------------------------
      1        6          -0.036475102   -0.004991804   -0.018292719
      2        6          -0.026480814    0.001021500    0.007532553
      3        6          -0.000465691    0.000029762    0.011997833
      4        6           0.017853653    0.000436201    0.012999140
      5        6           0.007481571   -0.003325231   -0.010514772
      6        6          -0.001516448    0.006559088   -0.027152267
      7        9           0.014364637    0.001721334    0.008404160
      8        1          -0.034128059    0.000227352    0.017691213
      9        1          -0.001582361   -0.000137718    0.037891436
     10        1           0.032966364    0.000541031    0.019128995
     11        1           0.031906129    0.000311547   -0.020468824
     12        1          -0.001577452   -0.001830306   -0.037988790
     13        8           0.004641180    0.000247513    0.002755031
     14        6           0.038453213    0.000162353    0.022412940
     15        1          -0.022252003    0.036356317   -0.012953247
     16        1          -0.022231129   -0.036368880   -0.012937267
     17        1          -0.002364835   -0.005183750    0.000957958
     18        7          -0.000772672    0.014224182   -0.001215864
     19        6          -0.021000241    0.027850214    0.026792380
     20        8           0.004580623   -0.003159251   -0.007050440
     21        6           0.013895172   -0.027274642   -0.014545270
     22        1           0.001259594    0.035937192   -0.014752346
     23        1          -0.037808447   -0.015539215    0.002747422
     24        1           0.019428416   -0.003760748    0.035872242
     25        1           0.021824701   -0.024054044   -0.029311498
 -------------------------------------------------------------------
 Cartesian Forces:  Max     0.038453213 RMS     0.019231452
 -----------------------------------------------------------------------------------------------
                       Internal Coordinate Forces (Hartree/Bohr or radian)
  Cent   Atom   N1       Length/X         N2         Alpha/Y        N3         Beta/Z          J
 -----------------------------------------------------------------------------------------------
      1  C 
      2  C        1   0.076258(     1)
      3  C        2   0.101865(     2)      1   0.216676(    25)
      4  C        3   0.077550(     3)      2   0.213283(    26)      1  -0.010549(    48)     0
      5  C        4   0.030984(     4)      3   0.096178(    27)      2  -0.006603(    49)     0
      6  C        1   0.029747(     5)      2   0.149760(    28)      3  -0.009872(    50)     0
      7  F        1  -0.015560(     6)      2  -0.000209(    29)      3  -0.000942(    51)     0
      8  H        2   0.038401(     7)      1  -0.003413(    30)      6  -0.000386(    52)     0
      9  H        3   0.037891(     8)      2  -0.003097(    31)      1   0.000233(    53)     0
     10  H        4   0.038114(     9)      3  -0.000163(    32)      2  -0.000917(    54)     0
     11  H        5   0.037866(    10)      4   0.003471(    33)      3  -0.000528(    55)     0
     12  H        6   0.037905(    11)      1  -0.002805(    34)      2  -0.005408(    56)     0
     13  O        1   0.001564(    12)      2  -0.000422(    35)      3   0.002981(    57)     0
     14  C       13   0.006961(    13)      1  -0.000123(    36)      2   0.000005(    58)     0
     15  H       14   0.044359(    14)     13   0.008107(    37)      1   0.000128(    59)     0
     16  H       14   0.044357(    15)     13   0.008050(    38)      1  -0.000123(    60)     0
     17  H        7  -0.000758(    16)      1   0.002983(    39)      2  -0.000143(    61)     0
     18  N       17   0.004078(    17)      7  -0.000049(    40)      1  -0.000169(    62)     0
     19  C       18   0.009891(    18)     17  -0.027345(    41)      7  -0.000166(    63)     0
     20  O       19  -0.002625(    19)     18   0.019897(    42)     17  -0.000220(    64)     0
     21  C       18   0.002491(    20)     17  -0.031023(    43)     19  -0.000158(    65)     0
     22  H       21   0.038402(    21)     18  -0.011745(    44)     17  -0.000093(    66)     0
     23  H       21   0.040931(    22)     18  -0.003444(    45)     17   0.000386(    67)     0
     24  H       21   0.040936(    23)     18  -0.003197(    46)     17  -0.000298(    68)     0
     25  H       19   0.043682(    24)     18   0.004795(    47)     17  -0.000007(    69)     0
 -----------------------------------------------------------------------------------------------
 Internal  Forces:  Max     0.216676150 RMS     0.049527361

 GradGradGradGradGradGradGradGradGradGradGradGradGradGradGradGradGradGrad
 Berny optimization.
 Search for a local minimum.
 Step number   2 out of a maximum of   50
 All quantities printed in internal units (Hartrees-Bohrs-Radians)
 Update second derivatives using D2CorN and points    1    2
 DE= -8.69D-02 DEPred=-8.47D-02 R= 1.03D+00
 TightC=F SS=  1.41D+00  RLast= 3.00D-01 DXNew= 5.0454D-01 9.0000D-01
 Trust test= 1.03D+00 RLast= 3.00D-01 DXMaxT set to 5.05D-01
 ITU=  1  0
     Eigenvalues ---    0.00366   0.00468   0.31496   0.36901   0.50267
     Eigenvalues ---    0.51605   0.53736   0.56876   0.57095   0.57183
     Eigenvalues ---    0.57252   0.57345   0.57384   0.57421   0.57446
     Eigenvalues ---    0.57450   0.57761   0.57976   0.75707   0.79309
     Eigenvalues ---    0.80962   0.96177   1.02047   2.21633
 RFO step:  Lambda=-3.32386838D-03 EMin= 3.66315318D-03
 Quartic linear search produced a step of  1.24997.
 Variable       Old X    -DE/DX   Delta X   Delta X   Delta X     New X
                                 (Linear)    (Quad)   (Total)
    B1        2.53715   0.07626   0.10063  -0.01325   0.08739   2.62454
    B2        2.54002   0.10187   0.10422  -0.01832   0.08590   2.62593
    B3        2.53699   0.07755   0.10043  -0.01439   0.08603   2.62302
[...]
 Alpha virt. eigenvalues --    3.42963   3.44649   3.48285   3.53256   3.55902
 Alpha virt. eigenvalues --    3.56713   3.60780   3.65463   3.65867   3.74247
 Alpha virt. eigenvalues --    3.76394   3.79418   3.80480   3.86941   3.88819
 Alpha virt. eigenvalues --    3.95468   3.96050   4.01532   4.02557   4.03798
 Alpha virt. eigenvalues --    4.06824   4.08868   4.15998   4.19074   4.20486
 Alpha virt. eigenvalues --    4.85427   4.93113   4.96156   5.00702   5.09883
 Alpha virt. eigenvalues --    5.17167   5.21654   5.31887   5.78571   5.85809
 Alpha virt. eigenvalues --    6.55434   6.59677   6.89228  23.66623  23.98435
 Alpha virt. eigenvalues --   23.99623  24.00739  24.03606  24.05218  24.15280
 Alpha virt. eigenvalues --   24.17010  24.26916  35.68807  50.03961  50.11005
 Alpha virt. eigenvalues --   66.94727
          Condensed to atoms (all electrons):
               1          2          3          4          5          6
     1  C   15.012886  -6.187707   3.973937  -4.421089   4.266217  -6.246349
     2  C   -6.187707  13.825819  -3.930441   3.732206  -3.860958   1.838368
     3  C    3.973937  -3.930441   9.854244  -3.602790   3.770977  -3.844290
     4  C   -4.421089   3.732206  -3.602790   9.910276  -3.897945   3.996950
     5  C    4.266217  -3.860958   3.770977  -3.897945  10.460898  -4.483405
     6  C   -6.246349   1.838368  -3.844290   3.996950  -4.483405  14.141320
     7  F    0.725284  -0.413912   0.071169  -0.045526   0.054400  -0.395588
     8  H   -0.315639   0.700868  -0.159188   0.116439  -0.094399   0.056661
     9  H    0.109928  -0.090214   0.397400  -0.105540   0.043768  -0.026719
    10  H   -0.044975   0.037738  -0.068673   0.440137  -0.081175   0.048223
    11  H    0.137764  -0.040897   0.066552  -0.148473   0.459767  -0.145000
    12  H   -0.418318   0.097863  -0.129065   0.175550  -0.249763   0.811749
    13  O    0.006205  -0.002598  -0.001007   0.000165  -0.000998  -0.000786
    14  C    0.001495  -0.001379   0.000512  -0.000180   0.000476  -0.001284
    15  H    0.000202  -0.000056  -0.000054   0.000021  -0.000076  -0.000032
    16  H   -0.000411   0.000170   0.000061  -0.000024   0.000104  -0.000056
    17  H   -0.017573   0.018890  -0.020230   0.018522  -0.009693  -0.009693
    18  N   -0.019484  -0.001650   0.008531   0.006176  -0.003474   0.026340
    19  C    0.028065  -0.032497   0.004234  -0.002095  -0.000046   0.015836
    20  O    0.001892  -0.000456  -0.000083  -0.000390   0.001231  -0.002026
    21  C   -0.034487   0.050310  -0.018142   0.007880  -0.008615  -0.003327
    22  H    0.005343  -0.001653   0.001725  -0.001043   0.000545  -0.002874
    23  H    0.007351  -0.006440  -0.000370  -0.000748  -0.000124   0.001639
    24  H    0.002957   0.004830   0.000409  -0.000378   0.002965  -0.007341
    25  H    0.036639  -0.003880   0.001284  -0.003395  -0.004936  -0.011413
               7          8          9         10         11         12
     1  C    0.725284  -0.315639   0.109928  -0.044975   0.137764  -0.418318
     2  C   -0.413912   0.700868  -0.090214   0.037738  -0.040897   0.097863
     3  C    0.071169  -0.159188   0.397400  -0.068673   0.066552  -0.129065
     4  C   -0.045526   0.116439  -0.105540   0.440137  -0.148473   0.175550
     5  C    0.054400  -0.094399   0.043768  -0.081175   0.459767  -0.249763
     6  C   -0.395588   0.056661  -0.026719   0.048223  -0.145000   0.811749
     7  F    9.134346  -0.027194   0.000862  -0.000346   0.000256  -0.020576
     8  H   -0.027194   0.470904  -0.006767   0.002528  -0.000922   0.004899
     9  H    0.000862  -0.006767   0.443539  -0.001934   0.001445  -0.001255
    10  H   -0.000346   0.002528  -0.001934   0.451301  -0.004401   0.004235
    11  H    0.000256  -0.000922   0.001445  -0.004401   0.451238  -0.015196
    12  H   -0.020576   0.004899  -0.001255   0.004235  -0.015196   0.502192
    13  O    0.002025   0.000605  -0.000013   0.000001  -0.000014   0.000660
    14  C   -0.000344  -0.000260   0.000007  -0.000001   0.000008  -0.000308
    15  H   -0.000124  -0.000013  -0.000001   0.000000  -0.000001  -0.000014
    16  H   -0.000085   0.000012   0.000001  -0.000000   0.000002  -0.000007
    17  H    0.087914  -0.002210  -0.000308  -0.000262  -0.000523   0.003115
    18  N   -0.027302  -0.001688  -0.000030   0.000151  -0.000276   0.001879
    19  C   -0.010639   0.000613   0.000173   0.000019  -0.000250  -0.001571
    20  O    0.000013   0.000089  -0.000004  -0.000010   0.000043  -0.000083
    21  C   -0.002969   0.003230  -0.000629   0.000168  -0.000117   0.000228
    22  H   -0.000712   0.000090   0.000070  -0.000016   0.000045  -0.000296
    23  H   -0.001220  -0.000679   0.000148  -0.000008   0.000005   0.000082
    24  H    0.000939  -0.000856  -0.000506  -0.000031   0.000064  -0.000429
    25  H   -0.002709   0.000339   0.000054  -0.000108   0.000438  -0.007207
              13         14         15         16         17         18
     1  C    0.006205   0.001495   0.000202  -0.000411  -0.017573  -0.019484
     2  C   -0.002598  -0.001379  -0.000056   0.000170   0.018890  -0.001650
     3  C   -0.001007   0.000512  -0.000054   0.000061  -0.020230   0.008531
     4  C    0.000165  -0.000180   0.000021  -0.000024   0.018522   0.006176
     5  C   -0.000998   0.000476  -0.000076   0.000104  -0.009693  -0.003474
     6  C   -0.000786  -0.001284  -0.000032  -0.000056  -0.009693   0.026340
     7  F    0.002025  -0.000344  -0.000124  -0.000085   0.087914  -0.027302
     8  H    0.000605  -0.000260  -0.000013   0.000012  -0.002210  -0.001688
     9  H   -0.000013   0.000007  -0.000001   0.000001  -0.000308  -0.000030
    10  H    0.000001  -0.000001   0.000000  -0.000000  -0.000262   0.000151
    11  H   -0.000014   0.000008  -0.000001   0.000002  -0.000523  -0.000276
    12  H    0.000660  -0.000308  -0.000014  -0.000007   0.003115   0.001879
    13  O    8.113578   0.309735  -0.080594  -0.083882   0.019818  -0.002255
    14  C    0.309735   4.878872   0.389057   0.394350  -0.004891   0.001012
    15  H   -0.080594   0.389057   0.668873  -0.110860   0.000775  -0.000123
    16  H   -0.083882   0.394350  -0.110860   0.674748  -0.000006   0.000257
    17  H    0.019818  -0.004891   0.000775  -0.000006   0.527612   0.312147
    18  N   -0.002255   0.001012  -0.000123   0.000257   0.312147   7.147560
    19  C   -0.002952   0.000126   0.000187  -0.000205  -0.087107   0.149584
    20  O    0.000042  -0.000110   0.000059  -0.000021   0.008892  -0.169655
    21  C   -0.001506   0.000932  -0.000222   0.000021  -0.056764   0.124809
    22  H    0.000045   0.000132  -0.000193   0.000023  -0.021570  -0.095558
    23  H   -0.000329  -0.000117   0.000034  -0.000075  -0.003578  -0.046320
    24  H   -0.000052  -0.000106   0.000094  -0.000040   0.014832  -0.050846
    25  H   -0.000720  -0.000046   0.000258  -0.000143  -0.010221  -0.215206
              19         20         21         22         23         24
     1  C    0.028065   0.001892  -0.034487   0.005343   0.007351   0.002957
     2  C   -0.032497  -0.000456   0.050310  -0.001653  -0.006440   0.004830
     3  C    0.004234  -0.000083  -0.018142   0.001725  -0.000370   0.000409
     4  C   -0.002095  -0.000390   0.007880  -0.001043  -0.000748  -0.000378
     5  C   -0.000046   0.001231  -0.008615   0.000545  -0.000124   0.002965
     6  C    0.015836  -0.002026  -0.003327  -0.002874   0.001639  -0.007341
     7  F   -0.010639   0.000013  -0.002969  -0.000712  -0.001220   0.000939
     8  H    0.000613   0.000089   0.003230   0.000090  -0.000679  -0.000856
     9  H    0.000173  -0.000004  -0.000629   0.000070   0.000148  -0.000506
    10  H    0.000019  -0.000010   0.000168  -0.000016  -0.000008  -0.000031
    11  H   -0.000250   0.000043  -0.000117   0.000045   0.000005   0.000064
    12  H   -0.001571  -0.000083   0.000228  -0.000296   0.000082  -0.000429
    13  O   -0.002952   0.000042  -0.001506   0.000045  -0.000329  -0.000052
    14  C    0.000126  -0.000110   0.000932   0.000132  -0.000117  -0.000106
    15  H    0.000187   0.000059  -0.000222  -0.000193   0.000034   0.000094
    16  H   -0.000205  -0.000021   0.000021   0.000023  -0.000075  -0.000040
    17  H   -0.087107   0.008892  -0.056764  -0.021570  -0.003578   0.014832
    18  N    0.149584  -0.169655   0.124809  -0.095558  -0.046320  -0.050846
    19  C    4.975770   0.458279  -0.050981   0.028003  -0.009029  -0.006673
    20  O    0.458279   8.206943  -0.030686   0.031750  -0.002176  -0.003273
    21  C   -0.050981  -0.030686   5.260451   0.426215   0.414607   0.395069
    22  H    0.028003   0.031750   0.426215   0.473456  -0.025223  -0.025289
    23  H   -0.009029  -0.002176   0.414607  -0.025223   0.550466  -0.059754
    24  H   -0.006673  -0.003273   0.395069  -0.025289  -0.059754   0.561664
    25  H    0.438319  -0.032393  -0.000160   0.010754  -0.002359  -0.001905
              25
     1  C    0.036639
     2  C   -0.003880
     3  C    0.001284
     4  C   -0.003395
     5  C   -0.004936
     6  C   -0.011413
     7  F   -0.002709
     8  H    0.000339
     9  H    0.000054
    10  H   -0.000108
    11  H    0.000438
    12  H   -0.007207
    13  O   -0.000720
    14  C   -0.000046
    15  H    0.000258
    16  H   -0.000143
    17  H   -0.010221
    18  N   -0.215206
    19  C    0.438319
    20  O   -0.032393
    21  C   -0.000160
    22  H    0.010754
    23  H   -0.002359
    24  H   -0.001905
    25  H    0.670133
 Mulliken charges:
               1
     1  C   -0.610131
     2  C    0.267674
     3  C   -0.376702
     4  C   -0.174706
     5  C   -0.365740
     6  C    0.243099
     7  F   -0.127962
     8  H    0.252536
     9  H    0.236526
    10  H    0.217439
    11  H    0.238445
    12  H    0.241632
    13  O   -0.275174
    14  C    0.032312
    15  H    0.132804
    16  H    0.126068
    17  H    0.232112
    18  N   -0.144581
    19  C    0.104838
    20  O   -0.467866
    21  C   -0.475316
    22  H    0.196230
    23  H    0.184220
    24  H    0.173658
    25  H    0.138585
 Sum of Mulliken charges =  -0.00000
 Mulliken charges with hydrogens summed into heavy atoms:
               1
     1  C   -0.610131
     2  C    0.520210
     3  C   -0.140177
     4  C    0.042734
     5  C   -0.127295
     6  C    0.484731
     7  F   -0.127962
    13  O   -0.275174
    14  C    0.291184
    18  N    0.087531
    19  C    0.243423
    20  O   -0.467866
    21  C    0.078793
 APT charges:
               1
     1  C   -0.325571
     2  C   -0.758092
     3  C   -0.157155
     4  C   -0.898687
     5  C   -0.209077
     6  C   -0.685761
     7  F   -0.143659
     8  H    0.350455
     9  H    0.794183
    10  H    0.958292
    11  H    0.771388
    12  H    0.311302
    13  O   -1.069805
    14  C   -0.118545
    15  H    0.432777
    16  H    0.782375
    17  H   -0.018515
    18  N    0.126696
    19  C   -0.369552
    20  O   -0.016119
    21  C   -1.444843
    22  H    0.738706
    23  H    0.413653
    24  H    0.302120
    25  H    0.233434
 Sum of APT charges =  -0.00000
 APT charges with hydrogens summed into heavy atoms:
               1
     1  C   -0.325571
     2  C   -0.407637
     3  C    0.637029
     4  C    0.059604
     5  C    0.562311
     6  C   -0.374460
     7  F   -0.143659
    13  O   -1.069805
    14  C    1.096607
    18  N    0.108181
    19  C   -0.136118
    20  O   -0.016119
    21  C    0.009637
 Electronic spatial extent (au):  <R**2>=           4160.4454
 Charge=              0.0000 electrons
 Dipole moment (field-independent basis, Debye):
    X=             -1.5467    Y=              4.4979    Z=              1.5365  Tot=              4.9984
 Quadrupole moment (field-independent basis, Debye-Ang):
   XX=            -52.6223   YY=            -94.7457   ZZ=            -67.5736
   XY=             22.9582   XZ=              3.4843   YZ=             -5.1466
 Traceless Quadrupole moment (field-independent basis, Debye-Ang):
   XX=             19.0249   YY=            -23.0985   ZZ=              4.0736
   XY=             22.9582   XZ=              3.4843   YZ=             -5.1466
 Octapole moment (field-independent basis, Debye-Ang**2):
  XXX=             90.3511  YYY=             97.9063  ZZZ=             -0.8142  XYY=             11.2115
  XXY=             89.4029  XXZ=              9.1677  XZZ=             -4.2662  YZZ=              3.9176
  YYZ=             23.0647  XYZ=            -19.9015
 Hexadecapole moment (field-independent basis, Debye-Ang**3):
 XXXX=          -2631.1682 YYYY=          -1671.5534 ZZZZ=           -467.0872 XXXY=            524.2812
 XXXZ=              1.2147 YYYX=            339.9170 YYYZ=            -86.1011 ZZZX=              0.6482
 ZZZY=              1.7573 XXYY=           -769.5349 XXZZ=           -614.8535 YYZZ=           -339.9591
 XXYZ=            -33.1245 YYXZ=             45.2224 ZZXY=              9.7359
 N-N= 7.107482151086D+02 E-N=-2.955494030405D+03  KE= 6.527969124099D+02
  Exact polarizability:   0.000   0.000   0.000   0.000   0.000   0.000
 Approx polarizability: 156.444   9.591 117.351  -3.217   8.155 150.070
 Rotating derivatives to standard orientation.
 ***** Axes restored to original set *****
 -------------------------------------------------------------------
 Center     Atomic                   Forces (Hartrees/Bohr)
 Number     Number              X              Y              Z
 -------------------------------------------------------------------
      1        6           0.018044405   -0.005846076    0.010440359
      2        6          -0.011277199    0.000801981    0.001655501
      3        6          -0.000091010    0.000127480   -0.002718958
      4        6           0.004719860    0.000214891    0.002660874
      5        6          -0.002488781   -0.003757196    0.001203047
      6        6          -0.004060324    0.009094124   -0.010385859
      7        9           0.000711491    0.001307079    0.000406598
      8        1          -0.000922433    0.000200243   -0.001597752
      9        1          -0.001411648   -0.000084369   -0.000000014
     10        1          -0.000000005    0.000490570    0.000000069
     11        1          -0.000694528    0.000241905   -0.001202932
     12        1          -0.001795090   -0.002710256   -0.000091924
     13        8           0.000009069   -0.000015043   -0.000012857
     14        6           0.007438470    0.000084919    0.004475220
     15        1          -0.003725236   -0.002507214   -0.002233314
     16        1          -0.003721628    0.002503573   -0.002227295
     17        1          -0.002503786   -0.000323677    0.000645294
     18        7           0.002380921    0.015087899   -0.007384393
     19        6          -0.003303353   -0.003189626    0.006984470
     20        8           0.004449947   -0.000590621   -0.007640898
     21        6          -0.005087144   -0.009617165    0.012197721
     22        1           0.002629314   -0.000953292   -0.004122589
     23        1           0.000237736   -0.000715158   -0.000280126
     24        1           0.000292265   -0.000605187   -0.000191512
     25        1           0.000168686    0.000760219   -0.000578729
 -------------------------------------------------------------------
 Cartesian Forces:  Max     0.018044405 RMS     0.004828084
 -----------------------------------------------------------------------------------------------
                       Internal Coordinate Forces (Hartree/Bohr or radian)
  Cent   Atom   N1       Length/X         N2         Alpha/Y        N3         Beta/Z          J
 -----------------------------------------------------------------------------------------------
      1  C 
      2  C        1  -0.000000(     1)
      3  C        2   0.000000(     2)      1  -0.000420(    25)
      4  C        3   0.000000(     3)      2  -0.003132(    26)      1  -0.013937(    48)     0
      5  C        4  -0.000000(     4)      3  -0.011190(    27)      2  -0.007984(    49)     0
      6  C        1  -0.000000(     5)      2   0.035243(    28)      3  -0.013870(    50)     0
      7  F        1   0.000003(     6)      2  -0.000144(    29)      3   0.001193(    51)     0
      8  H        2  -0.000000(     7)      1  -0.003779(    30)      6  -0.000355(    52)     0
      9  H        3  -0.000000(     8)      2  -0.002888(    31)      1   0.000149(    53)     0
     10  H        4   0.000000(     9)      3  -0.000000(    32)      2  -0.000870(    54)     0
     11  H        5  -0.000000(    10)      4   0.002842(    33)      3  -0.000429(    55)     0
     12  H        6   0.000000(    11)      1  -0.003399(    34)      2  -0.004967(    56)     0
     13  O        1  -0.000001(    12)      2   0.000092(    35)      3   0.000691(    57)     0
     14  C       13  -0.000000(    13)      1  -0.000103(    36)      2   0.000006(    58)     0
     15  H       14   0.000000(    14)     13   0.010438(    37)      1   0.000112(    59)     0
     16  H       14   0.000000(    15)     13   0.010423(    38)      1  -0.000106(    60)     0
     17  H        7  -0.000002(    16)      1   0.001521(    39)      2  -0.000104(    61)     0
     18  N       17  -0.000000(    17)      7  -0.000078(    40)      1   0.000016(    62)     0
     19  C       18   0.000000(    18)     17  -0.027402(    41)      7   0.000019(    63)     0
     20  O       19  -0.000000(    19)     18   0.020429(    42)     17  -0.000135(    64)     0
     21  C       18   0.000000(    20)     17  -0.030685(    43)     19  -0.000031(    65)     0
     22  H       21  -0.000000(    21)     18  -0.010212(    44)     17  -0.000090(    66)     0
     23  H       21  -0.000000(    22)     18  -0.001513(    45)     17   0.000637(    67)     0
     24  H       21   0.000000(    23)     18  -0.001313(    46)     17  -0.000559(    68)     0
     25  H       19  -0.000000(    24)     18   0.002016(    47)     17   0.000017(    69)     0
 -----------------------------------------------------------------------------------------------
 Internal  Forces:  Max     0.035243257 RMS     0.007931258
 1\1\GINC-R820\POpt\RM062X\6-311++G(d,p)\C9H12F1N1O2\ZJXU\07-Apr-2024\1
 \\# opt=(maxcyc=50,recalc=5,z-matrix) 6-311++g(d,p) m062x scrf=(solven
 t=chloroform)\\test\\0,1\C\C,1,B1\C,2,B2,1,120.00000011\C,3,B3,2,120.,
 1,0.,0\C,4,B4,3,119.99999989,2,0.,0\C,1,B5,2,119.97770821,3,1.71722694
 ,0\F,1,B6,2,119.9999999,3,-180.,0\H,2,B7,1,120.00000011,6,-178.2827730
 6,0\H,3,B8,2,120.00000011,1,180.,0\H,4,B9,3,120.,2,180.,0\H,5,B10,4,12
 0.00000011,3,180.,0\H,6,B11,1,119.91553063,2,-177.77151684,0\O,1,B12,2
 ,119.9999999,3,-180.,0\C,13,B13,1,179.90000005,2,180.,0\H,14,B14,13,11
 9.99996989,1,-90.04490481,0\H,14,B15,13,119.99996989,1,90.04490481,0\H
 ,7,B16,1,100.00000001,2,90.,0\N,17,B17,7,179.9,1,90.,0\C,18,B18,17,119
 .5,7,0.,0\O,19,B19,18,123.2,17,-180.,0\C,18,B20,17,121.9,19,-180.,0\H,
 21,B21,18,110.7,17,-180.,0\H,21,B22,18,110.7,17,-60.,0\H,21,B23,18,110
 .7,17,60.,0\H,19,B24,18,113.46721803,17,0.,0\\B1=1.38826526\B2=1.39062
 238\B3=1.38777217\B4=1.38778437\B5=1.38838388\B6=1.34909759\B7=1.08398
 906\B8=1.0826886\B9=1.08317822\B10=1.08269017\B11=1.08406122\B12=4.989
 18569\B13=1.20310181\B14=1.10143239\B15=1.10149786\B16=2.11120122\B17=
 1.00837332\B18=1.35218283\B19=1.21989391\B20=1.45224441\B21=1.08481706
 \B22=1.09211337\B23=1.09227763\B24=1.09970816\\Version=ES64L-G16RevB.0
 1\State=1-A\HF=-655.1156901\RMSD=4.595e-09\RMSF=4.828e-03\Dipole=-0.35
 38755,-1.7928876,0.7262943\Polar=0.,0.,0.,0.,0.,0.\Quadrupole=17.99245
 73,-22.8265114,4.8340541,0.6475056,7.3416712,8.739727\PG=C01 [X(C9H12F
 1N1O2)]\\@


 NATURE GIVES TO EVERY TIME AND SEASON SOME BEAUTY OF ITS OWN.

                                                    --DICKENS
 Job cpu time:       0 days  9 hours 16 minutes 18.2 seconds.
 Elapsed time:       0 days  2 hours 19 minutes  7.5 seconds.
 File lengths (MBytes):  RWF=    474 Int=      0 D2E=      0 Chk=     24 Scr=      1
 Normal termination of Gaussian 16 at Sun Apr  7 11:15:08 2024.
