 Entering Gaussian System, Link 0=g16
 Input=model_H3.gjf
 Output=model_H3.log
 Initial command:
 /home/zjxu/prog/g16/l1.exe "/home/zjxu/zjhan/5_model/HF/H3/water/Gau-49154.inp" -scrdir="/home/zjxu/zjhan/5_model/HF/H3/water/"
 Entering Link 1 = /home/zjxu/prog/g16/l1.exe PID=     49155.
  
 Copyright (c) 1988-2017, Gaussian, Inc.  All Rights Reserved.
  
 This is part of the Gaussian(R) 16 program.  It is based on
 the Gaussian(R) 09 system (copyright 2009, Gaussian, Inc.),
 the Gaussian(R) 03 system (copyright 2003, Gaussian, Inc.),
 the Gaussian(R) 98 system (copyright 1998, Gaussian, Inc.),
 the Gaussian(R) 94 system (copyright 1995, Gaussian, Inc.),
 the Gaussian 92(TM) system (copyright 1992, Gaussian, Inc.),
 the Gaussian 90(TM) system (copyright 1990, Gaussian, Inc.),
 the Gaussian 88(TM) system (copyright 1988, Gaussian, Inc.),
 the Gaussian 86(TM) system (copyright 1986, Carnegie Mellon
 University), and the Gaussian 82(TM) system (copyright 1983,
 Carnegie Mellon University). Gaussian is a federally registered
 trademark of Gaussian, Inc.
  
 This software contains proprietary and confidential information,
 including trade secrets, belonging to Gaussian, Inc.
  
 This software is provided under written license and may be
 used, copied, transmitted, or stored only in accord with that
 written license.
  
 The following legend is applicable only to US Government
 contracts under FAR:
  
                    RESTRICTED RIGHTS LEGEND
  
 Use, reproduction and disclosure by the US Government is
 subject to restrictions as set forth in subparagraphs (a)
 and (c) of the Commercial Computer Software - Restricted
 Rights clause in FAR 52.227-19.
  
 Gaussian, Inc.
 340 Quinnipiac St., Bldg. 40, Wallingford CT 06492
  
  
 ---------------------------------------------------------------
 Warning -- This program may not be used in any manner that
 competes with the business of Gaussian, Inc. or will provide
 assistance to any competitor of Gaussian, Inc.  The licensee
 of this program is prohibited from giving any competitor of
 Gaussian, Inc. access to this program.  By using this program,
 the user acknowledges that Gaussian, Inc. is engaged in the
 business of creating and licensing software in the field of
 computational chemistry and represents and warrants to the
 licensee that it is not a competitor of Gaussian, Inc. and that
 it will not use this program in any manner prohibited above.
 ---------------------------------------------------------------
  

 Cite this work as:
 Gaussian 16, Revision B.01,
 M. J. Frisch, G. W. Trucks, H. B. Schlegel, G. E. Scuseria, 
 M. A. Robb, J. R. Cheeseman, G. Scalmani, V. Barone, 
 G. A. Petersson, H. Nakatsuji, X. Li, M. Caricato, A. V. Marenich, 
 J. Bloino, B. G. Janesko, R. Gomperts, B. Mennucci, H. P. Hratchian, 
 J. V. Ortiz, A. F. Izmaylov, J. L. Sonnenberg, D. Williams-Young, 
 F. Ding, F. Lipparini, F. Egidi, J. Goings, B. Peng, A. Petrone, 
 T. Henderson, D. Ranasinghe, V. G. Zakrzewski, J. Gao, N. Rega, 
 G. Zheng, W. Liang, M. Hada, M. Ehara, K. Toyota, R. Fukuda, 
 J. Hasegawa, M. Ishida, T. Nakajima, Y. Honda, O. Kitao, H. Nakai, 
 T. Vreven, K. Throssell, J. A. Montgomery, Jr., J. E. Peralta, 
 F. Ogliaro, M. J. Bearpark, J. J. Heyd, E. N. Brothers, K. N. Kudin, 
 V. N. Staroverov, T. A. Keith, R. Kobayashi, J. Normand, 
 K. Raghavachari, A. P. Rendell, J. C. Burant, S. S. Iyengar, 
 J. Tomasi, M. Cossi, J. M. Millam, M. Klene, C. Adamo, R. Cammi, 
 J. W. Ochterski, R. L. Martin, K. Morokuma, O. Farkas, 
 J. B. Foresman, and D. J. Fox, Gaussian, Inc., Wallingford CT, 2016.
 
 ******************************************
 Gaussian 16:  ES64L-G16RevB.01 20-Dec-2017
                17-Jun-2024 
 ******************************************
 %mem=4GB
 %nproc=4
 Will use up to    4 processors via shared memory.
 %chk=model_H3
 -------------------------------------------------------
 # m062x 6-311++G(d,p) opt=z-matrix scrf=(solvent=water)
 -------------------------------------------------------
 1/10=7,18=40,26=3,38=1/1,3;
 2/12=2,17=6,18=5,29=3,40=1/2;
 3/5=4,6=6,7=1111,11=2,25=1,30=1,70=2201,71=1,72=1,74=-55/1,2,3;
 4//1;
 5/5=2,38=5,53=1/2;
 6/7=2,8=2,9=2,10=2,28=1/1;
 7/29=1/1,2,3,16;
 1/10=7,18=40,26=3/3(2);
 2/29=3/2;
 99//99;
 2/29=3/2;
 3/5=4,6=6,7=1111,11=2,25=1,30=1,70=2205,71=1,72=1,74=-55/1,2,3;
 4/5=5,16=3,69=1/1;
 5/5=2,38=5,53=1/2;
 7//1,2,3,16;
 1/18=40,26=3/3(-5);
 2/29=3/2;
 6/7=2,8=2,9=2,10=2,19=2,28=1/1;
 99/9=1/99;
 ----
 test
 ----
 Symbolic Z-matrix:
 Charge =  0 Multiplicity = 1
 C1
 C2                   1    d1
 C3                   2    d2       1     120. 
 C4                   3    d3       2     120.     1     0.       0
 C5                   4    d4       3     120.     2     0.       0
 C6                   5    d5       4     120.     3     0.       0
 F7                   1    d6       2     120.     3     180.     0
 H8                   2    d7       3     120.     4     180.     0
 H9                   3    d8       4     120.     5     180.     0
 H10                  4    d9       5     120.     6     180.     0
 H11                  5    d10      6     120.     1     180.     0
 H12                  6    d11      1     120.     2     180.     0
 O13                  7    d12      1     179.9    3     180.     0
 C14                  13   d13      1     179.9    2     180.     0
 H15                  14   d14      1     120.     2     90.      0
 H16                  14   d15      1     120.     2    -90.      0
 H17                  7    d16      1     100.     2     90.      0
 F18                  17   d17      7     160.     1     0.       0
 H19                  7    d18      1     100.     2    -30.      0
 F20                  19   d19      7     160.     1     0.       0
 H21                  7    d20      1     100.     2    -150.     0
 F22                  21   d21      7     160.     1     0.       0
       Variables:
  d1                    1.3                      
  d2                    1.3                      
  d3                    1.3                      
  d4                    1.3                      
  d5                    1.3                      
  d6                    1.4                      
  d7                    1.                       
  d8                    1.                       
  d9                    1.                       
  d10                   1.                       
  d11                   1.                       
  d12                   2.8                      
  d13                   1.2                      
  d14                   1.                       
  d15                   1.                       
  d16                   2.3                      
  d17                   0.9                      
  d18                   2.3                      
  d19                   0.9                      
  d20                   2.3                      
  d21                   0.9                      
 

 GradGradGradGradGradGradGradGradGradGradGradGradGradGradGradGradGradGrad
 Berny optimization.
 Initialization pass.
                       ----------------------------
                       !    Initial Parameters    !
                       ! (Angstroms and Degrees)  !
 ----------------------                            ----------------------
 !      Name          Value   Derivative information (Atomic Units)     !
 ------------------------------------------------------------------------
 !       d1          1.3      estimate D2E/DX2                          !
 !       d2          1.3      estimate D2E/DX2                          !
 !       d3          1.3      estimate D2E/DX2                          !
 !       d4          1.3      estimate D2E/DX2                          !
 !       d5          1.3      estimate D2E/DX2                          !
 !       d6          1.4      estimate D2E/DX2                          !
 !       d7          1.0      estimate D2E/DX2                          !
 !       d8          1.0      estimate D2E/DX2                          !
 !       d9          1.0      estimate D2E/DX2                          !
 !       d10         1.0      estimate D2E/DX2                          !
 !       d11         1.0      estimate D2E/DX2                          !
 !       d12         2.8      estimate D2E/DX2                          !
 !       d13         1.2      estimate D2E/DX2                          !
 !       d14         1.0      estimate D2E/DX2                          !
 !       d15         1.0      estimate D2E/DX2                          !
 !       d16         2.3      estimate D2E/DX2                          !
 !       d17         0.9      estimate D2E/DX2                          !
 !       d18         2.3      estimate D2E/DX2                          !
 !       d19         0.9      estimate D2E/DX2                          !
 !       d20         2.3      estimate D2E/DX2                          !
 !       d21         0.9      estimate D2E/DX2                          !
 ------------------------------------------------------------------------
 Trust Radius=3.00D-01 FncErr=1.00D-07 GrdErr=1.00D-06 EigMax=2.50D+02 EigMin=1.00D-04
 Number of steps in this run=     31 maximum allowed number of steps=    100.
 GradGradGradGradGradGradGradGradGradGradGradGradGradGradGradGradGradGrad

 ---------------------------------------------------------------------------------------------------
                            Z-MATRIX (ANGSTROMS AND DEGREES)
   CD    Cent   Atom    N1       Length/X        N2       Alpha/Y        N3        Beta/Z          J
 ---------------------------------------------------------------------------------------------------
      1      1  C 
      2      2  C        1   1.300000(     1)
      3      3  C        2   1.300000(     2)      1  120.000(    22)
      4      4  C        3   1.300000(     3)      2  120.000(    23)      1    0.000(    42)      0
      5      5  C        4   1.300000(     4)      3  120.000(    24)      2    0.000(    43)      0
      6      6  C        5   1.300000(     5)      4  120.000(    25)      3    0.000(    44)      0
      7      7  F        1   1.400000(     6)      2  120.000(    26)      3  180.000(    45)      0
      8      8  H        2   1.000000(     7)      3  120.000(    27)      4  180.000(    46)      0
      9      9  H        3   1.000000(     8)      4  120.000(    28)      5  180.000(    47)      0
     10     10  H        4   1.000000(     9)      5  120.000(    29)      6  180.000(    48)      0
     11     11  H        5   1.000000(    10)      6  120.000(    30)      1  180.000(    49)      0
     12     12  H        6   1.000000(    11)      1  120.000(    31)      2  180.000(    50)      0
     13     13  O        7   2.800000(    12)      1  179.900(    32)      3  180.000(    51)      0
     14     14  C       13   1.200000(    13)      1  179.900(    33)      2  180.000(    52)      0
     15     15  H       14   1.000000(    14)      1  120.000(    34)      2   90.000(    53)      0
     16     16  H       14   1.000000(    15)      1  120.000(    35)      2  -90.000(    54)      0
     17     17  H        7   2.300000(    16)      1  100.000(    36)      2   90.000(    55)      0
     18     18  F       17   0.900000(    17)      7  160.000(    37)      1    0.000(    56)      0
     19     19  H        7   2.300000(    18)      1  100.000(    38)      2  -30.000(    57)      0
     20     20  F       19   0.900000(    19)      7  160.000(    39)      1    0.000(    58)      0
     21     21  H        7   2.300000(    20)      1  100.000(    40)      2 -150.000(    59)      0
     22     22  F       21   0.900000(    21)      7  160.000(    41)      1    0.000(    60)      0
 ---------------------------------------------------------------------------------------------------
                         Z-Matrix orientation:                         
 ---------------------------------------------------------------------
 Center     Atomic      Atomic             Coordinates (Angstroms)
 Number     Number       Type             X           Y           Z
 ---------------------------------------------------------------------
      1          6           0        0.000000    0.000000    0.000000
      2          6           0        0.000000    0.000000    1.300000
      3          6           0        1.125833    0.000000    1.950000
      4          6           0        2.251666    0.000000    1.300000
      5          6           0        2.251666    0.000000   -0.000000
      6          6           0        1.125833    0.000000   -0.650000
      7          9           0       -1.212436   -0.000000   -0.700000
      8          1           0       -0.866025   -0.000000    1.800000
      9          1           0        1.125833   -0.000000    2.950000
     10          1           0        3.117691   -0.000000    1.800000
     11          1           0        3.117691   -0.000000   -0.500000
     12          1           0        1.125833   -0.000000   -1.650000
     13          8           0       -3.634860   -0.000000   -2.104230
     14          6           0       -4.672340   -0.000000   -2.707251
     15          1           0       -5.104965    0.866025   -2.957922
     16          1           0       -5.104965   -0.866025   -2.957922
     17          1           0       -1.558318    2.265058   -0.899695
     18          9           0       -1.422973    3.151385   -0.821554
     19          1           0       -2.539117   -1.132529    0.799098
     20          9           0       -2.787562   -1.575692    1.541985
     21          1           0       -0.577519   -1.132529   -2.598489
     22          9           0       -0.058383   -1.575692   -3.185092
 ---------------------------------------------------------------------
                    Distance matrix (angstroms):
                    1          2          3          4          5
     1  C    0.000000
     2  C    1.300000   0.000000
     3  C    2.251666   1.300000   0.000000
     4  C    2.600000   2.251666   1.300000   0.000000
     5  C    2.251666   2.600000   2.251666   1.300000   0.000000
     6  C    1.300000   2.251666   2.600000   2.251666   1.300000
     7  F    1.400000   2.338803   3.534119   4.000000   3.534119
     8  H    1.997498   1.000000   1.997498   3.157531   3.600000
     9  H    3.157531   1.997498   1.000000   1.997498   3.157531
    10  H    3.600000   3.157531   1.997498   1.000000   1.997498
    11  H    3.157531   3.600000   3.157531   1.997498   1.000000
    12  H    1.997498   3.157531   3.600000   3.157531   1.997498
    13  O    4.199999   4.980059   6.253077   6.799997   6.251317
    14  C    5.399997   6.155390   7.436988   7.999995   7.434452
    15  H    5.963218   6.703772   7.978755   8.543999   7.976172
    16  H    5.963218   6.703772   7.978755   8.543999   7.976172
    17  H    2.892800   3.521009   4.522822   4.948245   4.522822
    18  F    3.554016   4.056731   4.910107   5.285375   4.910107
    19  H    2.892800   2.825003   4.004879   4.948245   4.987262
    20  F    3.554016   3.211210   4.238390   5.285375   5.500395
    21  H    2.892800   4.100532   4.987262   4.948245   4.004879
    22  F    3.554016   4.754184   5.500395   5.285375   4.238390
                    6          7          8          9         10
     6  C    0.000000
     7  F    2.338803   0.000000
     8  H    3.157531   2.523886   0.000000
     9  H    3.600000   4.334743   2.300000   0.000000
    10  H    3.157531   5.000000   3.983717   2.300000   0.000000
    11  H    1.997498   4.334743   4.600000   3.983717   2.300000
    12  H    1.000000   2.523886   3.983717   4.600000   3.983717
    13  O    4.977849   2.800000   4.786382   6.943301   7.799997
    14  C    6.152324   3.999999   5.899436   8.100821   8.999995
    15  H    6.700697   4.582575   6.430896   8.629970   9.539387
    16  H    6.700697   4.582575   6.430896   8.629970   9.539387
    17  H    3.521009   2.300000   3.591394   5.211076   5.855246
    18  F    4.056731   3.160748   4.136902   5.536448   6.117303
    19  H    4.100532   2.300000   2.254698   4.397824   5.855246
    20  F    4.754184   3.160748   2.498336   4.447469   6.117303
    21  H    2.825003   2.300000   4.551105   5.913523   5.855246
    22  F    3.211210   3.160748   5.290202   6.443953   6.117303
                   11         12         13         14         15
    11  H    0.000000
    12  H    2.300000   0.000000
    13  O    6.940497   4.782313   0.000000
    14  C    8.096700   5.893776   1.200000   0.000000
    15  H    8.625744   6.425224   1.907878   1.000000   0.000000
    16  H    8.625744   6.425224   1.907878   1.000000   1.732051
    17  H    5.211076   3.591394   3.300517   4.253807   4.332700
    18  F    5.536448   4.136902   4.058193   4.903618   4.831563
    19  H    5.913523   4.551105   3.303421   4.257669   4.969204
    20  F    6.443953   5.290202   4.061478   4.908278   5.619742
    21  H    4.397824   2.254698   3.297612   4.249942   4.961973
    22  F    4.447469   2.498336   4.054905   4.898953   5.610845
                   16         17         18         19         20
    16  H    0.000000
    17  H    5.159329   0.000000
    18  F    5.853266   0.900000   0.000000
    19  H    4.557389   3.923195   4.714256   0.000000
    20  F    5.111080   4.714256   5.458359   0.900000   0.000000
    21  H    4.549503   3.923195   4.714256   3.923195   4.714256
    22  F    5.101296   4.714256   5.458359   4.714256   5.458359
                   21         22
    21  H    0.000000
    22  F    0.900000   0.000000
 Stoichiometry    C7H10F4O
 Framework group  C1[X(C7H10F4O)]
 Deg. of freedom    60
 Full point group                 C1      NOp   1
 Largest Abelian subgroup         C1      NOp   1
 Largest concise Abelian subgroup C1      NOp   1
                         Standard orientation:                         
 ---------------------------------------------------------------------
 Center     Atomic      Atomic             Coordinates (Angstroms)
 Number     Number       Type             X           Y           Z
 ---------------------------------------------------------------------
      1          6           0       -0.880854   -0.000042    0.000000
      2          6           0       -1.532341    1.124931    0.000000
      3          6           0       -2.832340    1.123213    0.000000
      4          6           0       -3.480852   -0.003478    0.000000
      5          6           0       -2.829365   -1.128451    0.000000
      6          6           0       -1.529366   -1.126733    0.000000
      7          9           0        0.519144    0.001807    0.000000
      8          1           0       -1.033486    1.991616    0.000000
      9          1           0       -3.333484    1.988577    0.000000
     10          1           0       -4.480851   -0.004799    0.000000
     11          1           0       -3.328221   -1.995136    0.000000
     12          1           0       -1.028223   -1.992097    0.000000
     13          8           0        3.319144    0.000620    0.000000
     14          6           0        4.519143   -0.001285    0.000000
     15          1           0        5.019143   -0.001400    0.866025
     16          1           0        5.019143   -0.001400   -0.866025
     17          1           0        0.918535    0.002335    2.265058
     18          9           0        0.762252    0.002129    3.151385
     19          1           0        0.915943    1.963931   -1.132529
     20          9           0        0.758646    2.731306   -1.575692
     21          1           0        0.921127   -1.959261   -1.132529
     22          9           0        0.765858   -2.727048   -1.575692
 ---------------------------------------------------------------------
 Rotational constants (GHZ):           0.7658531           0.4033036           0.3804359
 Standard basis: 6-311++G(d,p) (5D, 7F)
 There are   346 symmetry adapted cartesian basis functions of A   symmetry.
 There are   334 symmetry adapted basis functions of A   symmetry.
   334 basis functions,   522 primitive gaussians,   346 cartesian basis functions
    48 alpha electrons       48 beta electrons
       nuclear repulsion energy       698.7123834841 Hartrees.
 NAtoms=   22 NActive=   22 NUniq=   22 SFac= 1.00D+00 NAtFMM=   60 NAOKFM=F Big=F
 Integral buffers will be    131072 words long.
 Raffenetti 2 integral format.
 Two-electron integral symmetry is turned on.
 ------------------------------------------------------------------------------
 Polarizable Continuum Model (PCM)
 =================================
 Model                : PCM.
 Atomic radii         : UFF (Universal Force Field).
 Polarization charges : Total charges.
 Charge compensation  : None.
 Solution method      : On-the-fly selection.
 Cavity type          : Scaled VdW (van der Waals Surface) (Alpha=1.100).
 Cavity algorithm     : GePol (No added spheres)
                        Default sphere list used, NSphG=   22.
                        Lebedev-Laikov grids with approx.  5.0 points / Ang**2.
                        Smoothing algorithm: York/Karplus (Gamma=1.0000).
                        Polarization charges: spherical gaussians, with
                                              point-specific exponents (IZeta= 3).
                        Self-potential: point-specific (ISelfS= 7).
                        Self-field    : sphere-specific E.n sum rule (ISelfD= 2).
 1st derivatives      : Analytical E(r).r(x)/FMM algorithm (CHGder, D1EAlg=3).
                        Cavity 1st derivative terms included.
 Solvent              : Water, Eps=  78.355300 Eps(inf)=   1.777849
 ------------------------------------------------------------------------------
 One-electron integrals computed using PRISM.
 NBasis=   334 RedAO= T EigKep=  2.92D-06  NBF=   334
 NBsUse=   333 1.00D-06 EigRej=  4.35D-07 NBFU=   333
 ExpMin= 3.60D-02 ExpMax= 1.14D+04 ExpMxC= 1.72D+03 IAcc=3 IRadAn=         5 AccDes= 0.00D+00
 Harris functional with IExCor= 1009 and IRadAn=       5 diagonalized for initial guess.
 HarFok:  IExCor= 1009 AccDes= 0.00D+00 IRadAn=         5 IDoV= 1 UseB2=F ITyADJ=14
 ICtDFT=  3500011 ScaDFX=  1.000000  1.000000  1.000000  1.000000
 FoFCou: FMM=F IPFlag=           0 FMFlag=      100000 FMFlg1=           0
         NFxFlg=           0 DoJE=T BraDBF=F KetDBF=T FulRan=T
         wScrn=  0.000000 ICntrl=       500 IOpCl=  0 I1Cent=   200000004 NGrid=           0
         NMat0=    1 NMatS0=      1 NMatT0=    0 NMatD0=    1 NMtDS0=    0 NMtDT0=    0
 Petite list used in FoFCou.
 Requested convergence on RMS density matrix=1.00D-08 within 128 cycles.
 Requested convergence on MAX density matrix=1.00D-06.
 Requested convergence on             energy=1.00D-06.
 No special actions if energy rises.
 Inv3:  Mode=1 IEnd=    15133548.
 Iteration    1 A*A^-1 deviation from unit magnitude is 5.66D-15 for   2241.
 Iteration    1 A*A^-1 deviation from orthogonality  is 3.04D-15 for   2240   1814.
 Iteration    1 A^-1*A deviation from unit magnitude is 5.77D-15 for   2244.
 Iteration    1 A^-1*A deviation from orthogonality  is 1.74D-15 for   2241   2230.
 Error on total polarization charges =  0.01064
 SCF Done:  E(RM062X) =  -747.194545584     A.U. after   14 cycles
            NFock= 14  Conv=0.37D-08     -V/T= 1.9994

 **********************************************************************

            Population analysis using the SCF Density.

 **********************************************************************

 Orbital symmetries:
       Occupied  (A) (A) (A) (A) (A) (A) (A) (A) (A) (A) (A) (A)
                 (A) (A) (A) (A) (A) (A) (A) (A) (A) (A) (A) (A)
                 (A) (A) (A) (A) (A) (A) (A) (A) (A) (A) (A) (A)
                 (A) (A) (A) (A) (A) (A) (A) (A) (A) (A) (A) (A)
       Virtual   (A) (A) (A) (A) (A) (A) (A) (A) (A) (A) (A) (A)
                 (A) (A) (A) (A) (A) (A) (A) (A) (A) (A) (A) (A)
                 (A) (A) (A) (A) (A) (A) (A) (A) (A) (A) (A) (A)
                 (A) (A) (A) (A) (A) (A) (A) (A) (A) (A) (A) (A)
                 (A) (A) (A) (A) (A) (A) (A) (A) (A) (A) (A) (A)
                 (A) (A) (A) (A) (A) (A) (A) (A) (A) (A) (A) (A)
                 (A) (A) (A) (A) (A) (A) (A) (A) (A) (A) (A) (A)
                 (A) (A) (A) (A) (A) (A) (A) (A) (A) (A) (A) (A)
                 (A) (A) (A) (A) (A) (A) (A) (A) (A) (A) (A) (A)
                 (A) (A) (A) (A) (A) (A) (A) (A) (A) (A) (A) (A)
                 (A) (A) (A) (A) (A) (A) (A) (A) (A) (A) (A) (A)
                 (A) (A) (A) (A) (A) (A) (A) (A) (A) (A) (A) (A)
                 (A) (A) (A) (A) (A) (A) (A) (A) (A) (A) (A) (A)
                 (A) (A) (A) (A) (A) (A) (A) (A) (A) (A) (A) (A)
                 (A) (A) (A) (A) (A) (A) (A) (A) (A) (A) (A) (A)
                 (A) (A) (A) (A) (A) (A) (A) (A) (A) (A) (A) (A)
                 (A) (A) (A) (A) (A) (A) (A) (A) (A) (A) (A) (A)
                 (A) (A) (A) (A) (A) (A) (A) (A) (A) (A) (A) (A)
                 (A) (A) (A) (A) (A) (A) (A) (A) (A) (A) (A) (A)
                 (A) (A) (A) (A) (A) (A) (A) (A) (A) (A) (A) (A)
                 (A) (A) (A) (A) (A) (A) (A) (A) (A) (A) (A) (A)
                 (A) (A) (A) (A) (A) (A) (A) (A) (A) (A) (A) (A)
                 (A) (A) (A) (A) (A) (A) (A) (A) (A) (A) (A) (A)
                 (A) (A) (A) (A) (A) (A) (A) (A) (A)
 The electronic state is 1-A.
 Alpha  occ. eigenvalues --  -25.27658 -25.23808 -25.23808 -25.23574 -19.64111
 Alpha  occ. eigenvalues --  -10.62228 -10.61746 -10.53068 -10.53065 -10.52609
 Alpha  occ. eigenvalues --  -10.52598 -10.51840  -1.38174  -1.35671  -1.35654
 Alpha  occ. eigenvalues --   -1.35386  -1.19309  -1.03766  -0.89914  -0.89141
 Alpha  occ. eigenvalues --   -0.75072  -0.74602  -0.73193  -0.67410  -0.65554
 Alpha  occ. eigenvalues --   -0.65501  -0.65252  -0.60593  -0.60194  -0.59822
 Alpha  occ. eigenvalues --   -0.58723  -0.54639  -0.53946  -0.53677  -0.52379
 Alpha  occ. eigenvalues --   -0.52374  -0.52254  -0.52143  -0.52141  -0.52108
 Alpha  occ. eigenvalues --   -0.51447  -0.48568  -0.47720  -0.44957  -0.42594
 Alpha  occ. eigenvalues --   -0.35247  -0.34368  -0.33587
 Alpha virt. eigenvalues --   -0.00743  -0.00619   0.00794   0.01199   0.01517
 Alpha virt. eigenvalues --    0.02052   0.02210   0.02983   0.03206   0.03740
 Alpha virt. eigenvalues --    0.04668   0.05640   0.06180   0.07129   0.07498
 Alpha virt. eigenvalues --    0.08342   0.08959   0.10124   0.10746   0.11604
 Alpha virt. eigenvalues --    0.11882   0.12126   0.12914   0.13175   0.13540
 Alpha virt. eigenvalues --    0.13863   0.13923   0.14587   0.14953   0.15132
 Alpha virt. eigenvalues --    0.15657   0.16393   0.17580   0.17812   0.18264
 Alpha virt. eigenvalues --    0.18424   0.19821   0.20260   0.20733   0.21102
 Alpha virt. eigenvalues --    0.21397   0.21698   0.22317   0.24879   0.25177
 Alpha virt. eigenvalues --    0.25926   0.27008   0.27576   0.28360   0.29286
 Alpha virt. eigenvalues --    0.29653   0.29973   0.30851   0.31266   0.32300
 Alpha virt. eigenvalues --    0.32672   0.34379   0.34417   0.35072   0.36355
 Alpha virt. eigenvalues --    0.36510   0.36653   0.37622   0.38352   0.38516
 Alpha virt. eigenvalues --    0.40231   0.40993   0.41175   0.42683   0.43384
 Alpha virt. eigenvalues --    0.43855   0.44336   0.45043   0.46132   0.47867
 Alpha virt. eigenvalues --    0.51680   0.53893   0.55148   0.56228   0.56906
 Alpha virt. eigenvalues --    0.57629   0.59221   0.59608   0.59906   0.61475
 Alpha virt. eigenvalues --    0.62112   0.62361   0.63827   0.65131   0.65170
 Alpha virt. eigenvalues --    0.65981   0.67429   0.67621   0.69335   0.70159
 Alpha virt. eigenvalues --    0.72867   0.75374   0.76599   0.76960   0.77401
 Alpha virt. eigenvalues --    0.81169   0.81388   0.82640   0.84555   0.85164
 Alpha virt. eigenvalues --    0.89305   0.89667   0.93077   0.96105   0.99714
 Alpha virt. eigenvalues --    1.00515   1.00988   1.01855   1.05862   1.06712
 Alpha virt. eigenvalues --    1.08034   1.08400   1.10014   1.10833   1.16293
 Alpha virt. eigenvalues --    1.16502   1.18319   1.21126   1.21948   1.23749
 Alpha virt. eigenvalues --    1.27331   1.31396   1.31854   1.33178   1.33380
 Alpha virt. eigenvalues --    1.34811   1.34995   1.35824   1.36441   1.39375
 Alpha virt. eigenvalues --    1.40359   1.43217   1.47235   1.47971   1.49392
 Alpha virt. eigenvalues --    1.49594   1.52467   1.52965   1.53781   1.54600
 Alpha virt. eigenvalues --    1.55663   1.56886   1.56926   1.61824   1.63701
 Alpha virt. eigenvalues --    1.64958   1.66895   1.67556   1.67579   1.68097
 Alpha virt. eigenvalues --    1.71515   1.72307   1.73259   1.76730   1.77118
 Alpha virt. eigenvalues --    1.80087   1.82105   1.85104   1.85395   1.85808
 Alpha virt. eigenvalues --    1.90759   1.92088   1.93909   1.95459   1.95548
 Alpha virt. eigenvalues --    1.97588   1.98861   2.04297   2.04593   2.05388
 Alpha virt. eigenvalues --    2.06667   2.07262   2.13156   2.15403   2.17331
 Alpha virt. eigenvalues --    2.17630   2.18511   2.20157   2.21880   2.26120
 Alpha virt. eigenvalues --    2.27136   2.36225   2.36687   2.40488   2.46366
 Alpha virt. eigenvalues --    2.48361   2.50327   2.51053   2.55174   2.55221
 Alpha virt. eigenvalues --    2.57162   2.62063   2.64495   2.67233   2.70824
 Alpha virt. eigenvalues --    2.72087   2.75455   2.76631   2.77599   2.77793
 Alpha virt. eigenvalues --    2.79076   2.81344   2.86119   2.86220   2.88034
 Alpha virt. eigenvalues --    2.88330   2.90370   2.96612   2.97903   2.99336
 Alpha virt. eigenvalues --    3.03681   3.08119   3.11906   3.24230   3.27016
 Alpha virt. eigenvalues --    3.34464   3.39676   3.42207   3.55210   3.59566
 Alpha virt. eigenvalues --    3.61447   3.64159   3.75110   3.75364   3.85336
 Alpha virt. eigenvalues --    3.87780   3.88208   3.88294   3.88380   3.88503
 Alpha virt. eigenvalues --    3.88980   3.89120   3.97281   4.00634   4.02633
 Alpha virt. eigenvalues --    4.08612   4.13076   4.13885   4.14448   4.14869
 Alpha virt. eigenvalues --    4.15414   4.15787   4.16458   4.18331   4.19554
 Alpha virt. eigenvalues --    4.25995   4.26173   4.36187   4.91076   4.91142
 Alpha virt. eigenvalues --    4.91586   4.94136   4.95667   5.11945   5.23533
 Alpha virt. eigenvalues --    5.83513   6.41088   6.42201   6.42656   6.44093
 Alpha virt. eigenvalues --    6.48480   6.49054   6.50658   6.61463   6.84885
 Alpha virt. eigenvalues --    6.85502   6.85906   6.92091  23.73374  24.17485
 Alpha virt. eigenvalues --   24.26481  24.31289  24.53737  24.56948  24.72517
 Alpha virt. eigenvalues --   50.07444  66.90645  66.91310  66.91313  66.95267
          Condensed to atoms (all electrons):
               1          2          3          4          5          6
     1  C   18.778541  -1.594238  -3.938565  -1.521963  -3.941084  -1.603759
     2  C   -1.594238  18.588710   2.520135  -1.051042  -1.900174 -10.816507
     3  C   -3.938565   2.520135   8.972928   1.142061  -0.950009  -1.903165
     4  C   -1.521963  -1.051042   1.142061   7.143012   1.144893  -1.045614
     5  C   -3.941084  -1.900174  -0.950009   1.144893   8.972056   2.517928
     6  C   -1.603759 -10.816507  -1.903165  -1.045614   2.517928  18.596996
     7  F    0.455417  -0.245066  -0.039938   0.032452  -0.040242  -0.246951
     8  H   -0.297057   0.587181   0.022278  -0.006481   0.062186  -0.078875
     9  H    0.012489  -0.066814   0.451069  -0.084122  -0.021803   0.059800
    10  H    0.026555  -0.025537  -0.065632   0.508705  -0.065610  -0.025399
    11  H    0.012756   0.059975  -0.021774  -0.084172   0.450944  -0.067107
    12  H   -0.297200  -0.079291   0.062087  -0.006554   0.022149   0.588023
    13  O    0.018660  -0.008344   0.000291  -0.000203   0.000299  -0.008411
    14  C   -0.004283   0.000367   0.000967   0.000320   0.000956   0.000220
    15  H    0.001387  -0.000230  -0.000095  -0.000123  -0.000097  -0.000251
    16  H   -0.001759   0.000482   0.000152   0.000033   0.000155   0.000516
    17  H    0.013614  -0.002229  -0.002372  -0.001686  -0.002411  -0.002512
    18  F    0.191592  -0.054867  -0.029910   0.001849  -0.029881  -0.055011
    19  H   -0.013281   0.009943   0.012937   0.003669  -0.006945   0.003341
    20  F   -0.093620   0.115148   0.020769   0.000710   0.002729  -0.041213
    21  H   -0.013563   0.003286  -0.006922   0.003684   0.012977   0.010208
    22  F   -0.093214  -0.041023   0.002722   0.000647   0.020492   0.114888
               7          8          9         10         11         12
     1  C    0.455417  -0.297057   0.012489   0.026555   0.012756  -0.297200
     2  C   -0.245066   0.587181  -0.066814  -0.025537   0.059975  -0.079291
     3  C   -0.039938   0.022278   0.451069  -0.065632  -0.021774   0.062087
     4  C    0.032452  -0.006481  -0.084122   0.508705  -0.084172  -0.006554
     5  C   -0.040242   0.062186  -0.021803  -0.065610   0.450944   0.022149
     6  C   -0.246951  -0.078875   0.059800  -0.025399  -0.067107   0.588023
     7  F    9.295637  -0.012446  -0.001994   0.001454  -0.001982  -0.012510
     8  H   -0.012446   0.572801  -0.022527   0.000896   0.002140   0.000986
     9  H   -0.001994  -0.022527   0.467961  -0.014066   0.000503   0.002146
    10  H    0.001454   0.000896  -0.014066   0.480744  -0.014061   0.000893
    11  H   -0.001982   0.002140   0.000503  -0.014061   0.467956  -0.022541
    12  H   -0.012510   0.000986   0.002146   0.000893  -0.022541   0.572917
    13  O    0.007326  -0.000083   0.000031   0.000004   0.000032  -0.000101
    14  C    0.002811   0.000272  -0.000019   0.000011  -0.000019   0.000272
    15  H   -0.000508   0.000168   0.000001  -0.000000   0.000001   0.000172
    16  H   -0.000345  -0.000033  -0.000000  -0.000001  -0.000000  -0.000034
    17  H    0.014322  -0.002415   0.000379  -0.000171   0.000381  -0.002425
    18  F   -0.009603   0.001829  -0.000711   0.000187  -0.000711   0.001833
    19  H    0.014663  -0.013111   0.001274   0.000047  -0.000247   0.001452
    20  F   -0.005362   0.009857  -0.001959  -0.000089   0.000210  -0.001097
    21  H    0.014737   0.001447  -0.000247   0.000047   0.001272  -0.013108
    22  F   -0.005393  -0.001093   0.000210  -0.000090  -0.001954   0.009835
              13         14         15         16         17         18
     1  C    0.018660  -0.004283   0.001387  -0.001759   0.013614   0.191592
     2  C   -0.008344   0.000367  -0.000230   0.000482  -0.002229  -0.054867
     3  C    0.000291   0.000967  -0.000095   0.000152  -0.002372  -0.029910
     4  C   -0.000203   0.000320  -0.000123   0.000033  -0.001686   0.001849
     5  C    0.000299   0.000956  -0.000097   0.000155  -0.002411  -0.029881
     6  C   -0.008411   0.000220  -0.000251   0.000516  -0.002512  -0.055011
     7  F    0.007326   0.002811  -0.000508  -0.000345   0.014322  -0.009603
     8  H   -0.000083   0.000272   0.000168  -0.000033  -0.002415   0.001829
     9  H    0.000031  -0.000019   0.000001  -0.000000   0.000379  -0.000711
    10  H    0.000004   0.000011  -0.000000  -0.000001  -0.000171   0.000187
    11  H    0.000032  -0.000019   0.000001  -0.000000   0.000381  -0.000711
    12  H   -0.000101   0.000272   0.000172  -0.000034  -0.002425   0.001833
    13  O    8.222015   0.274607  -0.089879  -0.087620   0.006659  -0.002265
    14  C    0.274607   4.793268   0.420859   0.418019  -0.000214  -0.000024
    15  H   -0.089879   0.420859   0.656653  -0.116356  -0.000854   0.000202
    16  H   -0.087620   0.418019  -0.116356   0.656037   0.000232  -0.000125
    17  H    0.006659  -0.000214  -0.000854   0.000232   0.361706   0.333889
    18  F   -0.002265  -0.000024   0.000202  -0.000125   0.333889   8.926464
    19  H    0.006042  -0.000217  -0.000196  -0.000160   0.001457  -0.000757
    20  F   -0.001307   0.000343  -0.000093  -0.000068  -0.000713   0.000185
    21  H    0.006045  -0.000223  -0.000199  -0.000161   0.001460  -0.000757
    22  F   -0.001296   0.000354  -0.000094  -0.000071  -0.000715   0.000185
              19         20         21         22
     1  C   -0.013281  -0.093620  -0.013563  -0.093214
     2  C    0.009943   0.115148   0.003286  -0.041023
     3  C    0.012937   0.020769  -0.006922   0.002722
     4  C    0.003669   0.000710   0.003684   0.000647
     5  C   -0.006945   0.002729   0.012977   0.020492
     6  C    0.003341  -0.041213   0.010208   0.114888
     7  F    0.014663  -0.005362   0.014737  -0.005393
     8  H   -0.013111   0.009857   0.001447  -0.001093
     9  H    0.001274  -0.001959  -0.000247   0.000210
    10  H    0.000047  -0.000089   0.000047  -0.000090
    11  H   -0.000247   0.000210   0.001272  -0.001954
    12  H    0.001452  -0.001097  -0.013108   0.009835
    13  O    0.006042  -0.001307   0.006045  -0.001296
    14  C   -0.000217   0.000343  -0.000223   0.000354
    15  H   -0.000196  -0.000093  -0.000199  -0.000094
    16  H   -0.000160  -0.000068  -0.000161  -0.000071
    17  H    0.001457  -0.000713   0.001460  -0.000715
    18  F   -0.000757   0.000185  -0.000757   0.000185
    19  H    0.393107   0.331746   0.000597  -0.000498
    20  F    0.331746   8.920227  -0.000493   0.000248
    21  H    0.000597  -0.000493   0.393055   0.331787
    22  F   -0.000498   0.000248   0.331787   8.920219
 Mulliken charges:
               1
     1  C   -0.097425
     2  C    0.000137
     3  C   -0.250011
     4  C   -0.180075
     5  C   -0.249507
     6  C    0.002857
     7  F   -0.216480
     8  H    0.172080
     9  H    0.218399
    10  H    0.191112
    11  H    0.218397
    12  H    0.172095
    13  O   -0.342502
    14  C    0.091355
    15  H    0.129531
    16  H    0.131107
    17  H    0.284619
    18  F   -0.273593
    19  H    0.255138
    20  F   -0.256159
    21  H    0.255073
    22  F   -0.256147
 Sum of Mulliken charges =  -0.00000
 Mulliken charges with hydrogens summed into heavy atoms:
               1
     1  C   -0.097425
     2  C    0.172218
     3  C   -0.031613
     4  C    0.011037
     5  C   -0.031110
     6  C    0.174952
     7  F   -0.216480
    13  O   -0.342502
    14  C    0.351993
    18  F    0.011027
    20  F   -0.001022
    22  F   -0.001074
 Electronic spatial extent (au):  <R**2>=           3214.3767
 Charge=             -0.0000 electrons
 Dipole moment (field-independent basis, Debye):
    X=              1.1015    Y=             -0.0070    Z=             -0.0147  Tot=              1.1016
 Quadrupole moment (field-independent basis, Debye-Ang):
   XX=            -32.6418   YY=            -78.0508   ZZ=            -86.5351
   XY=              0.0080   XZ=             -0.0203   YZ=             -0.0002
 Traceless Quadrupole moment (field-independent basis, Debye-Ang):
   XX=             33.1007   YY=            -12.3082   ZZ=            -20.7925
   XY=              0.0080   XZ=             -0.0203   YZ=             -0.0002
 Octapole moment (field-independent basis, Debye-Ang**2):
  XXX=            147.7073  YYY=             -0.0651  ZZZ=            -30.7626  XYY=             -9.0172
  XXY=             -0.0285  XXZ=              0.0161  XZZ=             12.1119  YZZ=             -0.0065
  YYZ=             30.5229  XYZ=             -0.0406
 Hexadecapole moment (field-independent basis, Debye-Ang**3):
 XXXX=          -1498.1774 YYYY=           -904.3206 ZZZZ=           -731.5326 XXXY=             -0.2912
 XXXZ=              0.0544 YYYX=              0.1189 YYYZ=              0.1879 ZZZX=            -21.8468
 ZZZY=             -0.0641 XXYY=           -509.0739 XXZZ=           -519.2028 YYZZ=           -282.1551
 XXYZ=             -0.0579 YYXZ=             21.7509 ZZXY=              0.0032
 N-N= 6.987123834841D+02 E-N=-3.163779305513D+03  KE= 7.476685200030D+02
 D1PCM: PCM CHGder 1st derivatives, ID1Alg=3 FixD1E=F DoIter=F DoCFld=F I1PDM=0.
 Calling FoFJK, ICntrl=      2127 FMM=F ISym2X=0 I1Cent= 0 IOpClX= 0 NMat=1 NMatS=1 NMatT=0.
 ***** Axes restored to original set *****
 -------------------------------------------------------------------
 Center     Atomic                   Forces (Hartrees/Bohr)
 Number     Number              X              Y              Z
 -------------------------------------------------------------------
      1        6          -0.076859043    0.000311319   -0.044373465
      2        6          -0.054695495    0.000063644    0.013634247
      3        6           0.002721044    0.000150097    0.037517357
      4        6           0.038744417   -0.000188978    0.022369238
      5        6           0.033856084    0.000150031   -0.016396268
      6        6          -0.015532982    0.000064173   -0.054184552
      7        9           0.015962768   -0.000225993    0.009216740
      8        1          -0.064444533    0.000695567    0.037322513
      9        1          -0.001857781    0.000009825    0.073626920
     10        1           0.064166151    0.000014341    0.037046835
     11        1           0.062832919    0.000009776   -0.038424387
     12        1           0.000100645    0.000695196   -0.074470795
     13        8           0.018234915    0.000107928    0.010522144
     14        6           0.059470507   -0.000017435    0.034660692
     15        1          -0.038977375    0.071286914   -0.022666933
     16        1          -0.038976725   -0.071290007   -0.022667677
     17        1          -0.005343616   -0.030973675   -0.003084685
     18        9           0.004637883    0.028117638    0.002678008
     19        1           0.007316091    0.014739370   -0.027206731
     20        9          -0.008100289   -0.014231213    0.023912182
     21        1          -0.019913215    0.014742746    0.019942489
     22        9           0.016657629   -0.014231264   -0.018973873
 -------------------------------------------------------------------
 Cartesian Forces:  Max     0.076859043 RMS     0.032974917
 -----------------------------------------------------------------------------------------------
                       Internal Coordinate Forces (Hartree/Bohr or radian)
  Cent   Atom   N1       Length/X         N2         Alpha/Y        N3         Beta/Z          J
 -----------------------------------------------------------------------------------------------
      1  C 
      2  C        1   0.038108(     1)
      3  C        2   0.153850(     2)      1   0.161994(    22)
      4  C        3   0.221523(     3)      2   0.416843(    23)      1   0.002417(    42)     0
      5  C        4   0.183409(     4)      3   0.450865(    24)      2   0.003564(    43)     0
      6  C        5   0.077625(     5)      4   0.251150(    25)      3   0.001608(    44)     0
      7  F        1  -0.012665(     6)      2  -0.000005(    26)      3   0.000939(    45)     0
      8  H        2   0.074472(     7)      3  -0.000189(    27)      4   0.001138(    46)     0
      9  H        3   0.073627(     8)      4   0.003511(    28)      5   0.000016(    47)     0
     10  H        4   0.074093(     9)      5   0.000001(    29)      6   0.000023(    48)     0
     11  H        5   0.073627(    10)      6  -0.003515(    30)      1   0.000016(    49)     0
     12  H        6   0.074471(    11)      1   0.000190(    31)      2   0.001138(    50)     0
     13  O        7   0.000291(    12)      1  -0.000035(    32)      3  -0.000001(    51)     0
     14  C       13   0.021344(    13)      1   0.000106(    33)      2   0.000000(    52)     0
     15  H       14   0.084281(    14)      1   0.006434(    34)      2   0.000117(    53)     0
     16  H       14   0.084283(    15)      1   0.006431(    35)      2  -0.000119(    54)     0
     17  H        7  -0.002671(    16)      1   0.004976(    36)      2  -0.000003(    55)     0
     18  F       17   0.028620(    17)      7  -0.000666(    37)      1  -0.000000(    56)     0
     19  H        7  -0.001945(    18)      1   0.011916(    38)      2  -0.003292(    57)     0
     20  F       19   0.028981(    19)      7   0.000158(    39)      1   0.000032(    58)     0
     21  H        7  -0.001950(    20)      1   0.011962(    40)      2   0.003290(    59)     0
     22  F       21   0.028983(    21)      7   0.000162(    41)      1  -0.000032(    60)     0
 -----------------------------------------------------------------------------------------------
 Internal  Forces:  Max     0.450864984 RMS     0.102097975

 GradGradGradGradGradGradGradGradGradGradGradGradGradGradGradGradGradGrad
 Berny optimization.
 Search for a local minimum.
 Step number   1 out of a maximum of   31
 All quantities printed in internal units (Hartrees-Bohrs-Radians)
 Second derivative matrix not updated -- first step.
 ITU=  0
     Eigenvalues ---    0.02330   0.02721   0.02721   0.02721   0.45621
     Eigenvalues ---    0.47688   0.47688   0.47688   0.47688   0.47688
     Eigenvalues ---    0.47688   0.47688   0.67193   0.67193   0.67193
     Eigenvalues ---    0.70673   0.70673   0.70673   1.04823   1.12429
     Eigenvalues ---    2.01579
 RFO step:  Lambda=-1.63608224D-01 EMin= 2.33007068D-02
 Linear search not attempted -- first point.
 Maximum step size (   0.300) exceeded in Quadratic search.
    -- Step size scaled by   0.670
 Variable       Old X    -DE/DX   Delta X   Delta X   Delta X     New X
                                 (Linear)    (Quad)   (Total)
    d1        2.45664   0.03811   0.00000   0.07648   0.07648   2.53313
    d2        2.45664   0.15385   0.00000   0.08714   0.08714   2.54379
    d3        2.45664   0.22152   0.00000   0.09547   0.09547   2.55211
    d4        2.45664   0.18341   0.00000   0.10111   0.10111   2.55776
    d5        2.45664   0.07763   0.00000   0.09844   0.09844   2.55508
    d6        2.64562  -0.01267   0.00000  -0.01369  -0.01369   2.63193
    d7        1.88973   0.07447   0.00000   0.07789   0.07789   1.96762
    d8        1.88973   0.07363   0.00000   0.07701   0.07701   1.96673
    d9        1.88973   0.07409   0.00000   0.07749   0.07749   1.96722
   d10        1.88973   0.07363   0.00000   0.07701   0.07701   1.96673
   d11        1.88973   0.07447   0.00000   0.07789   0.07789   1.96761
   d12        5.29123   0.00029   0.00000   0.00104   0.00104   5.29228
   d13        2.26767   0.02134   0.00000   0.01180   0.01180   2.27947
   d14        1.88973   0.08428   0.00000   0.08815   0.08815   1.97787
   d15        1.88973   0.08428   0.00000   0.08815   0.08815   1.97788
   d16        4.34637  -0.00267   0.00000  -0.00938  -0.00938   4.33699
   d17        1.70075   0.02862   0.00000   0.02203   0.02203   1.72278
   d18        4.34637  -0.00195   0.00000  -0.00683  -0.00683   4.33954
   d19        1.70075   0.02898   0.00000   0.02231   0.02231   1.72306
   d20        4.34637  -0.00195   0.00000  -0.00685  -0.00685   4.33952
   d21        1.70075   0.02898   0.00000   0.02231   0.02231   1.72306
         Item               Value     Threshold  Converged?
 Maximum Force            0.221523     0.000450     NO 
 RMS     Force            0.086910     0.000300     NO 
 Maximum Displacement     0.101114     0.001800     NO 
 RMS     Displacement     0.065465     0.001200     NO 
 Predicted change in Energy=-8.025151D-02
 GradGradGradGradGradGradGradGradGradGradGradGradGradGradGradGradGradGrad

 ---------------------------------------------------------------------------------------------------
                            Z-MATRIX (ANGSTROMS AND DEGREES)
   CD    Cent   Atom    N1       Length/X        N2       Alpha/Y        N3        Beta/Z          J
 ---------------------------------------------------------------------------------------------------
      1      1  C 
      2      2  C        1   1.340473(     1)
      3      3  C        2   1.346114(     2)      1  120.000(    22)
      4      4  C        3   1.350519(     3)      2  120.000(    23)      1    0.000(    42)      0
      5      5  C        4   1.353507(     4)      3  120.000(    24)      2    0.000(    43)      0
      6      6  C        5   1.352092(     5)      4  120.000(    25)      3    0.000(    44)      0
      7      7  F        1   1.392756(     6)      2  120.000(    26)      3  180.000(    45)      0
      8      8  H        2   1.041217(     7)      3  120.000(    27)      4  180.000(    46)      0
      9      9  H        3   1.040749(     8)      4  120.000(    28)      5  180.000(    47)      0
     10     10  H        4   1.041007(     9)      5  120.000(    29)      6  180.000(    48)      0
     11     11  H        5   1.040749(    10)      6  120.000(    30)      1  180.000(    49)      0
     12     12  H        6   1.041216(    11)      1  120.000(    31)      2  180.000(    50)      0
     13     13  O        7   2.800552(    12)      1  179.900(    32)      3  180.000(    51)      0
     14     14  C       13   1.206244(    13)      1  179.900(    33)      2  180.000(    52)      0
     15     15  H       14   1.046646(    14)      1  120.000(    34)      2   90.000(    53)      0
     16     16  H       14   1.046647(    15)      1  120.000(    35)      2  -90.000(    54)      0
     17     17  H        7   2.295038(    16)      1  100.000(    36)      2   90.000(    55)      0
     18     18  F       17   0.911657(    17)      7  160.000(    37)      1    0.000(    56)      0
     19     19  H        7   2.296386(    18)      1  100.000(    38)      2  -30.000(    57)      0
     20     20  F       19   0.911804(    19)      7  160.000(    39)      1    0.000(    58)      0
     21     21  H        7   2.296377(    20)      1  100.000(    40)      2 -150.000(    59)      0
     22     22  F       21   0.911805(    21)      7  160.000(    41)      1    0.000(    60)      0
 ---------------------------------------------------------------------------------------------------
                         Z-Matrix orientation:                         
 ---------------------------------------------------------------------
 Center     Atomic      Atomic             Coordinates (Angstroms)
 Number     Number       Type             X           Y           Z
 ---------------------------------------------------------------------
      1          6           0        0.000000    0.000000    0.000000
      2          6           0        0.000000    0.000000    1.340473
      3          6           0        1.165769    0.000000    2.013530
      4          6           0        2.335353    0.000000    1.338270
      5          6           0        2.335353    0.000000   -0.015237
      6          6           0        1.164406    0.000000   -0.691283
      7          9           0       -1.206162   -0.000000   -0.696378
      8          1           0       -0.901720   -0.000000    1.861082
      9          1           0        1.165769   -0.000000    3.054279
     10          1           0        3.236891   -0.000000    1.858774
     11          1           0        3.236668   -0.000000   -0.535612
     12          1           0        1.151746   -0.000000   -1.732423
     13          8           0       -3.629064   -0.000000   -2.100885
     14          6           0       -4.671942   -0.000000   -2.707045
     15          1           0       -5.124745    0.906422   -2.969412
     16          1           0       -5.124746   -0.906423   -2.969412
     17          1           0       -1.551299    2.260171   -0.895643
     18          9           0       -1.414200    3.157978   -0.816489
     19          1           0       -2.530759   -1.130750    0.800364
     20          9           0       -2.782463   -1.579725    1.552995
     21          1           0       -0.572246   -1.130745   -2.591877
     22          9           0       -0.046301   -1.579721   -3.186174
 ---------------------------------------------------------------------
                    Distance matrix (angstroms):
                    1          2          3          4          5
     1  C    0.000000
     2  C    1.340473   0.000000
     3  C    2.326654   1.346114   0.000000
     4  C    2.691624   2.335354   1.350519   0.000000
     5  C    2.335402   2.700337   2.341756   1.353507   0.000000
     6  C    1.354147   2.341768   2.704813   2.343118   1.352092
     7  F    1.392756   2.367191   3.601341   4.084376   3.606422
     8  H    2.068024   1.041217   2.073102   3.279020   3.741552
     9  H    3.269195   2.072715   1.040749   2.076683   3.284792
    10  H    3.732627   3.278125   2.076896   1.041007   2.079589
    11  H    3.280686   3.741085   3.284319   2.079376   1.040749
    12  H    2.080338   3.281647   3.745979   3.290909   2.085582
    13  O    4.193307   5.001305   6.318135   6.884915   6.318560
    14  C    5.399550   6.181379   7.507509   8.091153   7.506531
    15  H    5.991829   6.757198   8.076006   8.662031   8.074763
    16  H    5.991830   6.757199   8.076007   8.662032   8.074764
    17  H    2.883934   3.537671   4.577566   5.020438   4.581435
    18  F    3.555199   4.077410   4.963675   5.354900   4.967291
    19  H    2.885121   2.824014   4.051504   5.024638   5.061901
    20  F    3.556603   3.206681   4.277401   5.360381   5.580943
    21  H    2.885113   4.131516   5.050649   5.017845   4.046206
    22  F    3.556595   4.794601   5.567904   5.351485   4.268798
                    6          7          8          9         10
     6  C    0.000000
     7  F    2.370574   0.000000
     8  H    3.283816   2.575517   0.000000
     9  H    3.745563   4.437735   2.387097   0.000000
    10  H    3.286029   5.125381   4.138612   2.391398   0.000000
    11  H    2.078100   4.445738   4.782301   4.144387   2.394386
    12  H    1.041216   2.575484   4.138840   4.786722   4.152653
    13  O    4.996433   2.800552   4.809947   7.040323   7.925923
    14  C    6.174647   4.006795   5.923036   8.201934   9.132160
    15  H    6.750178   4.619910   6.479908   8.756541   9.697935
    16  H    6.750179   4.619911   6.479909   8.756542   9.697936
    17  H    3.539095   2.295038   3.623514   5.300256   5.968413
    18  F    4.078935   3.167101   4.171911   5.622447   6.225955
    19  H    4.142205   2.296386   2.248885   4.474712   5.971986
    20  F    4.807296   3.168586   2.475408   4.509759   6.230703
    21  H    2.811904   2.296377   4.606080   6.014845   5.966272
    22  F    3.191522   3.168577   5.357430   6.550412   6.223052
                   11         12         13         14         15
    11  H    0.000000
    12  H    2.404008   0.000000
    13  O    7.041900   4.794988   0.000000
    14  C    8.201295   5.904679   1.206244   0.000000
    15  H    8.755468   6.461121   1.952690   1.046646   0.000000
    16  H    8.755468   6.461122   1.952692   1.046647   1.812845
    17  H    5.306847   3.621467   3.298195   4.257695   4.347720
    18  F    5.628703   4.170832   4.065479   4.915273   4.844866
    19  H    6.027159   4.610255   3.301836   4.262063   5.008996
    20  F    6.564126   5.363535   4.069779   4.920732   5.667395
    21  H    4.473772   2.233695   3.296027   4.254333   5.001782
    22  F    4.505428   2.458502   4.063196   4.911378   5.658488
                   16         17         18         19         20
    16  H    0.000000
    17  H    5.205512   0.000000
    18  F    5.909533   0.911657   0.000000
    19  H    4.581517   3.915881   4.717425   0.000000
    20  F    5.137294   4.717668   5.471054   0.911804   0.000000
    21  H    4.573631   3.915873   4.717418   3.917024   4.718750
    22  F    5.127467   4.717661   5.471046   4.718750   5.472322
                   21         22
    21  H    0.000000
    22  F    0.911805   0.000000
 Stoichiometry    C7H10F4O
 Framework group  C1[X(C7H10F4O)]
 Deg. of freedom    60
 Full point group                 C1      NOp   1
 Largest Abelian subgroup         C1      NOp   1
 Largest concise Abelian subgroup C1      NOp   1
                         Standard orientation:                         
 ---------------------------------------------------------------------
 Center     Atomic      Atomic             Coordinates (Angstroms)
 Number     Number       Type             X           Y           Z
 ---------------------------------------------------------------------
      1          6           0       -0.858042    0.005294    0.000113
      2          6           0       -1.527347    1.166715    0.000089
      3          6           0       -2.873460    1.167794    0.000028
      4          6           0       -3.549657   -0.001248   -0.000010
      5          6           0       -2.873844   -1.173962    0.000014
      6          6           0       -1.521752   -1.175046    0.000076
      7          9           0        0.534714    0.004177    0.000176
      8          1           0       -1.006016    2.068017    0.000118
      9          1           0       -3.393112    2.069526    0.000009
     10          1           0       -4.590664   -0.000414   -0.000057
     11          1           0       -3.394941   -2.074860   -0.000015
     12          1           0       -0.990936   -2.070795    0.000095
     13          8           0        3.335258   -0.002956    0.000303
     14          6           0        4.541493   -0.007434    0.000358
     15          1           0        5.064773   -0.008673    0.906803
     16          1           0        5.064856   -0.008662   -0.906042
     17          1           0        0.933141    0.003845    2.260365
     18          9           0        0.774792    0.003967    3.158164
     19          1           0        0.935099    1.962379   -1.130544
     20          9           0        0.777410    2.740158   -1.579523
     21          1           0        0.931957   -1.954643   -1.130562
     22          9           0        0.773021   -2.732163   -1.579550
 ---------------------------------------------------------------------
 Rotational constants (GHZ):           0.7554640           0.3968337           0.3729319
 Standard basis: 6-311++G(d,p) (5D, 7F)
 There are   346 symmetry adapted cartesian basis functions of A   symmetry.
 There are   334 symmetry adapted basis functions of A   symmetry.
   334 basis functions,   522 primitive gaussians,   346 cartesian basis functions
    48 alpha electrons       48 beta electrons
       nuclear repulsion energy       687.8162506314 Hartrees.
 NAtoms=   22 NActive=   22 NUniq=   22 SFac= 1.00D+00 NAtFMM=   60 NAOKFM=F Big=F
 Integral buffers will be    131072 words long.
 Raffenetti 2 integral format.
 Two-electron integral symmetry is turned on.
 ------------------------------------------------------------------------------
 Polarizable Continuum Model (PCM)
 =================================
 Model                : PCM.
 Atomic radii         : UFF (Universal Force Field).
 Polarization charges : Total charges.
 Charge compensation  : None.
 Solution method      : On-the-fly selection.
 Cavity type          : Scaled VdW (van der Waals Surface) (Alpha=1.100).
 Cavity algorithm     : GePol (No added spheres)
                        Default sphere list used, NSphG=   22.
                        Lebedev-Laikov grids with approx.  5.0 points / Ang**2.
                        Smoothing algorithm: York/Karplus (Gamma=1.0000).
                        Polarization charges: spherical gaussians, with
                                              point-specific exponents (IZeta= 3).
                        Self-potential: point-specific (ISelfS= 7).
                        Self-field    : sphere-specific E.n sum rule (ISelfD= 2).
 1st derivatives      : Analytical E(r).r(x)/FMM algorithm (CHGder, D1EAlg=3).
                        Cavity 1st derivative terms included.
 Solvent              : Water, Eps=  78.355300 Eps(inf)=   1.777849
 ------------------------------------------------------------------------------
 One-electron integrals computed using PRISM.
 NBasis=   334 RedAO= T EigKep=  3.98D-06  NBF=   334
 NBsUse=   333 1.00D-06 EigRej=  6.09D-07 NBFU=   333
 Initial guess from the checkpoint file:  "model_H3.chk"
 B after Tr=    -0.000000    0.000000    0.000000
         Rot=    1.000000   -0.000003    0.000019    0.000421 Ang=  -0.05 deg.
 ExpMin= 3.60D-02 ExpMax= 1.14D+04 ExpMxC= 1.72D+03 IAcc=3 IRadAn=         5 AccDes= 0.00D+00
 Harris functional with IExCor= 1009 and IRadAn=       5 diagonalized for initial guess.
 HarFok:  IExCor= 1009 AccDes= 0.00D+00 IRadAn=         5 IDoV= 1 UseB2=F ITyADJ=14
 ICtDFT=  3500011 ScaDFX=  1.000000  1.000000  1.000000  1.000000
 FoFCou: FMM=F IPFlag=           0 FMFlag=      100000 FMFlg1=           0
         NFxFlg=           0 DoJE=T BraDBF=F KetDBF=T FulRan=T
         wScrn=  0.000000 ICntrl=       500 IOpCl=  0 I1Cent=   200000004 NGrid=           0
         NMat0=    1 NMatS0=      1 NMatT0=    0 NMatD0=    1 NMtDS0=    0 NMtDT0=    0
 Petite list used in FoFCou.
 Requested convergence on RMS density matrix=1.00D-08 within 128 cycles.
 Requested convergence on MAX density matrix=1.00D-06.
 Requested convergence on             energy=1.00D-06.
 No special actions if energy rises.
 Inv3:  Mode=1 IEnd=    15595200.
 Iteration    1 A*A^-1 deviation from unit magnitude is 5.55D-15 for   2277.
 Iteration    1 A*A^-1 deviation from orthogonality  is 2.55D-15 for   2267   2218.
 Iteration    1 A^-1*A deviation from unit magnitude is 5.77D-15 for   2277.
 Iteration    1 A^-1*A deviation from orthogonality  is 2.09D-15 for   1854    235.
 Error on total polarization charges =  0.01129
 SCF Done:  E(RM062X) =  -747.270787710     A.U. after   13 cycles
            NFock= 13  Conv=0.34D-08     -V/T= 2.0015
 D1PCM: PCM CHGder 1st derivatives, ID1Alg=3 FixD1E=F DoIter=F DoCFld=F I1PDM=0.
 Calling FoFJK, ICntrl=      2127 FMM=F ISym2X=0 I1Cent= 0 IOpClX= 0 NMat=1 NMatS=1 NMatT=0.
 ***** Axes restored to original set *****
 -------------------------------------------------------------------
 Center     Atomic                   Forces (Hartrees/Bohr)
 Number     Number              X              Y              Z
 -------------------------------------------------------------------
      1        6          -0.020294909    0.000248631   -0.026253784
      2        6          -0.029941001    0.000159065    0.007672414
      3        6           0.008051727    0.000135814    0.010064781
      4        6           0.011795653   -0.000188652    0.004781320
      5        6           0.006187199    0.000132005   -0.001236165
      6        6          -0.012347884    0.000218528   -0.016924325
      7        9           0.015151871   -0.000195012    0.009555454
      8        1          -0.029052747    0.000688263    0.016849705
      9        1          -0.001518481    0.000014544    0.033141057
     10        1           0.028899052    0.000011183    0.016519480
     11        1           0.027943099    0.000017379   -0.017940777
     12        1           0.000384696    0.000733741   -0.033167672
     13        8           0.003995245    0.000114336    0.002240449
     14        6           0.035623364   -0.000018475    0.020855874
     15        1          -0.019875219    0.031893763   -0.011593332
     16        1          -0.019874539   -0.031895631   -0.011594007
     17        1          -0.003051912   -0.015756630   -0.001761900
     18        9           0.002337767    0.013029717    0.001348936
     19        1           0.002924025    0.006992860   -0.014474596
     20        9          -0.003888208   -0.006621404    0.011173162
     21        1          -0.011143022    0.006942071    0.009764847
     22        9           0.007694226   -0.006656097   -0.009020925
 -------------------------------------------------------------------
 Cartesian Forces:  Max     0.035623364 RMS     0.015017430
 -----------------------------------------------------------------------------------------------
                       Internal Coordinate Forces (Hartree/Bohr or radian)
  Cent   Atom   N1       Length/X         N2         Alpha/Y        N3         Beta/Z          J
 -----------------------------------------------------------------------------------------------
      1  C 
      2  C        1   0.020281(     1)
      3  C        2   0.058245(     2)      1   0.029528(    22)
      4  C        3   0.078431(     3)      2   0.127658(    23)      1   0.003309(    42)     0
      5  C        4   0.068748(     4)      3   0.148929(    24)      2   0.004527(    43)     0
      6  C        5   0.034878(     5)      4   0.091722(    25)      3   0.002099(    44)     0
      7  F        1  -0.011815(     6)      2  -0.002293(    26)      3   0.001455(    45)     0
      8  H        2   0.033585(     7)      3  -0.000130(    27)      4   0.001173(    46)     0
      9  H        3   0.033141(     8)      4   0.002986(    28)      5   0.000025(    47)     0
     10  H        4   0.033287(     9)      5  -0.000282(    29)      6   0.000019(    48)     0
     11  H        5   0.033170(    10)      6  -0.003079(    30)      1   0.000030(    49)     0
     12  H        6   0.033161(    11)      1   0.001550(    31)      2   0.001250(    50)     0
     13  O        7   0.000159(    12)      1  -0.000069(    32)      3  -0.000001(    51)     0
     14  C       13   0.004739(    13)      1   0.000102(    33)      2   0.000000(    52)     0
     15  H       14   0.039125(    14)      1   0.007871(    34)      2   0.000114(    53)     0
     16  H       14   0.039127(    15)      1   0.007869(    35)      2  -0.000116(    54)     0
     17  H        7  -0.002542(    16)      1   0.004896(    36)      2   0.000004(    55)     0
     18  F       17   0.013300(    17)      7  -0.000681(    37)      1   0.000000(    56)     0
     19  H        7  -0.001779(    18)      1   0.012550(    38)      2  -0.003576(    57)     0
     20  F       19   0.013556(    19)      7   0.000236(    39)      1   0.000045(    58)     0
     21  H        7  -0.001707(    20)      1   0.013192(    40)      2   0.003892(    59)     0
     22  F       21   0.013595(    21)      7   0.000364(    41)      1  -0.000039(    60)     0
 -----------------------------------------------------------------------------------------------
 Internal  Forces:  Max     0.148929068 RMS     0.035011984

 GradGradGradGradGradGradGradGradGradGradGradGradGradGradGradGradGradGrad
 Berny optimization.
 Search for a local minimum.
 Step number   2 out of a maximum of   31
 All quantities printed in internal units (Hartrees-Bohrs-Radians)
 Update second derivatives using D2CorN and points    1    2
 DE= -7.62D-02 DEPred=-8.03D-02 R= 9.50D-01
 TightC=F SS=  1.41D+00  RLast= 3.00D-01 DXNew= 5.0454D-01 9.0000D-01
 Trust test= 9.50D-01 RLast= 3.00D-01 DXMaxT set to 5.05D-01
 ITU=  1  0
     Eigenvalues ---    0.02330   0.02719   0.02721   0.02721   0.45465
     Eigenvalues ---    0.47676   0.47688   0.47688   0.47688   0.47688
     Eigenvalues ---    0.47688   0.49646   0.67186   0.67193   0.70392
     Eigenvalues ---    0.70672   0.70673   0.70932   1.04893   1.12469
     Eigenvalues ---    2.02295
 RFO step:  Lambda=-3.59823685D-03 EMin= 2.33018147D-02
 Quartic linear search produced a step of  0.90234.
 Variable       Old X    -DE/DX   Delta X   Delta X   Delta X     New X
                                 (Linear)    (Quad)   (Total)
    d1        2.53313   0.02028   0.06901   0.00329   0.07230   2.60543
    d2        2.54379   0.05825   0.07863  -0.00853   0.07010   2.61388
    d3        2.55211   0.07843   0.08614  -0.02226   0.06389   2.61600
    d4        2.55776   0.06875   0.09124  -0.01277   0.07847   2.63622
    d5        2.55508   0.03488   0.08883  -0.00112   0.08771   2.64279
    d6        2.63193  -0.01182  -0.01235  -0.02871  -0.04107   2.59086
    d7        1.96762   0.03359   0.07028   0.01532   0.08560   2.05322
    d8        1.96673   0.03314   0.06948   0.01489   0.08437   2.05110
    d9        1.96722   0.03329   0.06992   0.01472   0.08465   2.05187
   d10        1.96673   0.03317   0.06948   0.01500   0.08449   2.05122
   d11        1.96761   0.03316   0.07028   0.01360   0.08388   2.05149
   d12        5.29228   0.00016   0.00094   0.00670   0.00764   5.29992
   d13        2.27947   0.00474   0.01065  -0.00836   0.00228   2.28175
   d14        1.97787   0.03913   0.07954   0.02186   0.10140   2.07928
   d15        1.97788   0.03913   0.07954   0.02187   0.10141   2.07928
   d16        4.33699  -0.00254  -0.00846  -0.12130  -0.12977   4.20723
   d17        1.72278   0.01330   0.01988   0.00360   0.02347   1.74626
   d18        4.33954  -0.00178  -0.00616  -0.08374  -0.08990   4.24964
   d19        1.72306   0.01356   0.02013   0.00388   0.02401   1.74707
   d20        4.33952  -0.00171  -0.00618  -0.07913  -0.08531   4.25422
   d21        1.72306   0.01360   0.02013   0.00399   0.02412   1.74718
         Item               Value     Threshold  Converged?
 Maximum Force            0.078431     0.000450     NO 
 RMS     Force            0.034651     0.000300     NO 
 Maximum Displacement     0.129767     0.001800     NO 
 RMS     Displacement     0.075619     0.001200     NO 
 Predicted change in Energy=-1.528806D-02
 GradGradGradGradGradGradGradGradGradGradGradGradGradGradGradGradGradGrad

 ---------------------------------------------------------------------------------------------------
                            Z-MATRIX (ANGSTROMS AND DEGREES)
   CD    Cent   Atom    N1       Length/X        N2       Alpha/Y        N3        Beta/Z          J
 ---------------------------------------------------------------------------------------------------
      1      1  C 
      2      2  C        1   1.378732(     1)
      3      3  C        2   1.383208(     2)      1  120.000(    22)
      4      4  C        3   1.384328(     3)      2  120.000(    23)      1    0.000(    42)      0
      5      5  C        4   1.395030(     4)      3  120.000(    24)      2    0.000(    43)      0
      6      6  C        5   1.398506(     5)      4  120.000(    25)      3    0.000(    44)      0
      7      7  F        1   1.371025(     6)      2  120.000(    26)      3  180.000(    45)      0
      8      8  H        2   1.086515(     7)      3  120.000(    27)      4  180.000(    46)      0
      9      9  H        3   1.085398(     8)      4  120.000(    28)      5  180.000(    47)      0
     10     10  H        4   1.085801(     9)      5  120.000(    29)      6  180.000(    48)      0
     11     11  H        5   1.085459(    10)      6  120.000(    30)      1  180.000(    49)      0
     12     12  H        6   1.085603(    11)      1  120.000(    31)      2  180.000(    50)      0
     13     13  O        7   2.804595(    12)      1  179.900(    32)      3  180.000(    51)      0
     14     14  C       13   1.207451(    13)      1  179.900(    33)      2  180.000(    52)      0
     15     15  H       14   1.100306(    14)      1  120.000(    34)      2   90.000(    53)      0
     16     16  H       14   1.100310(    15)      1  120.000(    35)      2  -90.000(    54)      0
     17     17  H        7   2.226368(    16)      1  100.000(    36)      2   90.000(    55)      0
     18     18  F       17   0.924079(    17)      7  160.000(    37)      1    0.000(    56)      0
     19     19  H        7   2.248815(    18)      1  100.000(    38)      2  -30.000(    57)      0
     20     20  F       19   0.924510(    19)      7  160.000(    39)      1    0.000(    58)      0
     21     21  H        7   2.251234(    20)      1  100.000(    40)      2 -150.000(    59)      0
     22     22  F       21   0.924567(    21)      7  160.000(    41)      1    0.000(    60)      0
 ---------------------------------------------------------------------------------------------------
                         Z-Matrix orientation:                         
 ---------------------------------------------------------------------
 Center     Atomic      Atomic             Coordinates (Angstroms)
 Number     Number       Type             X           Y           Z
 ---------------------------------------------------------------------
      1          6           0        0.000000    0.000000    0.000000
      2          6           0        0.000000    0.000000    1.378732
      3          6           0        1.197893    0.000000    2.070336
      4          6           0        2.396756    0.000000    1.378172
      5          6           0        2.396756    0.000000   -0.016858
      6          6           0        1.185614    0.000000   -0.716111
      7          9           0       -1.187343   -0.000000   -0.685513
      8          1           0       -0.940949   -0.000000    1.921990
      9          1           0        1.197893   -0.000000    3.155734
     10          1           0        3.337088   -0.000000    1.921073
     11          1           0        3.336791   -0.000000   -0.559587
     12          1           0        1.164167   -0.000000   -1.801502
     13          8           0       -3.613742   -0.000000   -2.092047
     14          6           0       -4.657659   -0.000000   -2.698821
     15          1           0       -5.133675    0.952893   -2.974642
     16          1           0       -5.133677   -0.952896   -2.974643
     17          1           0       -1.522152    2.192545   -0.878815
     18          9           0       -1.383186    3.102584   -0.798583
     19          1           0       -2.484499   -1.107325    0.780224
     20          9           0       -2.739711   -1.562558    1.543342
     21          1           0       -0.565888   -1.108516   -2.543748
     22          9           0       -0.032581   -1.563777   -3.146364
 ---------------------------------------------------------------------
                    Distance matrix (angstroms):
                    1          2          3          4          5
     1  C    0.000000
     2  C    1.378732   0.000000
     3  C    2.391911   1.383208   0.000000
     4  C    2.764742   2.396756   1.384328   0.000000
     5  C    2.396815   2.773465   2.407000   1.395030   0.000000
     6  C    1.385097   2.407083   2.786474   2.419274   1.398506
     7  F    1.371025   2.381363   3.644729   4.135766   3.645938
     8  H    2.139960   1.086515   2.143981   3.381718   3.859975
     9  H    3.375441   2.143054   1.085398   2.144061   3.391550
    10  H    3.850542   3.380871   2.144396   1.085801   2.154019
    11  H    3.383388   3.858920   3.389894   2.153736   1.085459
    12  H    2.144923   3.386617   3.871985   3.410220   2.168924
    13  O    4.175619   5.010533   6.362175   6.940354   6.358655
    14  C    5.383068   6.190334   7.551977   8.147800   7.547033
    15  H    6.009253   6.798124   8.151599   8.749994   8.146404
    16  H    6.009255   6.798127   8.151601   8.749996   8.146406
    17  H    2.810074   3.495814   4.572023   5.025842   4.572534
    18  F    3.489551   4.034840   4.951635   5.352780   4.952281
    19  H    2.829780   2.785160   4.055931   5.040870   5.068349
    20  F    3.511340   3.158275   4.268962   5.371421   5.590984
    21  H    2.831906   4.115203   5.062560   5.038604   4.048610
    22  F    3.513697   4.787793   5.583317   5.368287   4.259212
                    6          7          8          9         10
     6  C    0.000000
     7  F    2.373154   0.000000
     8  H    3.388487   2.619118   0.000000
     9  H    3.871864   4.521562   2.469164   0.000000
    10  H    3.403465   5.221566   4.278037   2.469927   0.000000
    11  H    2.156864   4.525886   4.945431   4.287015   2.480660
    12  H    1.085603   2.602889   4.277371   4.957350   4.310353
    13  O    4.992697   2.804595   4.822480   7.119764   8.026155
    14  C    6.170493   4.012046   5.930078   8.280296   9.233602
    15  H    6.778081   4.660650   6.516438   8.864439   9.830048
    16  H    6.778083   4.660653   6.516440   8.864441   9.830051
    17  H    3.487939   2.226368   3.604102   5.336992   6.021531
    18  F    4.028841   3.110815   4.150074   5.650187   6.269253
    19  H    4.115206   2.248815   2.216381   4.519871   6.034781
    20  F    4.791126   3.133565   2.412572   4.532783   6.285837
    21  H    2.763481   2.251234   4.616524   6.068264   6.032964
    22  F    3.136165   3.136026   5.381333   6.608775   6.283231
                   11         12         13         14         15
    11  H    0.000000
    12  H    2.502528   0.000000
    13  O    7.117468   4.786735   0.000000
    14  C    8.275721   5.890573   1.207451   0.000000
    15  H    8.859419   6.476657   1.999294   1.100306   0.000000
    16  H    8.859421   6.476659   1.999297   1.100310   1.905789
    17  H    5.340271   3.588163   3.264036   4.236871   4.355723
    18  F    5.653436   4.137739   4.034162   4.894805   4.839688
    19  H    6.075252   4.604807   3.278917   4.248829   5.036035
    20  F    6.617233   5.373066   4.052354   4.910811   5.698310
    21  H    4.516261   2.184681   3.274485   4.242104   5.029886
    22  F    4.526531   2.384588   4.047431   4.902758   5.690718
                   16         17         18         19         20
    16  H    0.000000
    17  H    5.227753   0.000000
    18  F    5.937032   0.924079   0.000000
    19  H    4.597936   3.816761   4.629132   0.000000
    20  F    5.149267   4.631424   5.393359   0.924510   0.000000
    21  H    4.590706   3.818828   4.631085   3.837950   4.651448
    22  F    5.140412   4.633633   5.395474   4.651703   5.414970
                   21         22
    21  H    0.000000
    22  F    0.924567   0.000000
 Stoichiometry    C7H10F4O
 Framework group  C1[X(C7H10F4O)]
 Deg. of freedom    60
 Full point group                 C1      NOp   1
 Largest Abelian subgroup         C1      NOp   1
 Largest concise Abelian subgroup C1      NOp   1
                         Standard orientation:                         
 ---------------------------------------------------------------------
 Center     Atomic      Atomic             Coordinates (Angstroms)
 Number     Number       Type             X           Y           Z
 ---------------------------------------------------------------------
      1          6           0       -0.827930    0.004194    0.001833
      2          6           0       -1.517515    1.198083   -0.000117
      3          6           0       -2.900722    1.197828   -0.001170
      4          6           0       -3.592666   -0.001162   -0.000267
      5          6           0       -2.894929   -1.209163    0.001706
      6          6           0       -1.496423   -1.208905    0.002771
      7          9           0        0.543095    0.004447    0.002878
      8          1           0       -0.974430    2.139132   -0.000826
      9          1           0       -3.443593    2.137709   -0.002706
     10          1           0       -4.678467   -0.001362   -0.001094
     11          1           0       -3.437486   -2.149298    0.002414
     12          1           0       -0.934984   -2.138054    0.004308
     13          8           0        3.347686    0.000069    0.005020
     14          6           0        4.555132   -0.003231    0.005944
     15          1           0        5.104558   -0.002853    0.959257
     16          1           0        5.106013   -0.005127   -0.946531
     17          1           0        0.928029    0.007134    2.195715
     18          9           0        0.766871    0.008191    3.105631
     19          1           0        0.934089    1.921140   -1.106437
     20          9           0        0.773752    2.709052   -1.562733
     21          1           0        0.935215   -1.916809   -1.103048
     22          9           0        0.775157   -2.705915   -1.557490
 ---------------------------------------------------------------------
 Rotational constants (GHZ):           0.7670796           0.3964682           0.3705682
 Standard basis: 6-311++G(d,p) (5D, 7F)
 There are   346 symmetry adapted cartesian basis functions of A   symmetry.
 There are   334 symmetry adapted basis functions of A   symmetry.
   334 basis functions,   522 primitive gaussians,   346 cartesian basis functions
    48 alpha electrons       48 beta electrons
       nuclear repulsion energy       683.3183511479 Hartrees.
[...]
 ---------------------------------------------------------------------
 Center     Atomic      Atomic             Coordinates (Angstroms)
 Number     Number       Type             X           Y           Z
 ---------------------------------------------------------------------
      1          6           0       -0.796476    0.006706    0.016894
      2          6           0       -1.485821    1.199927    0.001742
      3          6           0       -2.868906    1.199493   -0.007602
      4          6           0       -3.562038   -0.001775   -0.001724
      5          6           0       -2.864472   -1.209226    0.013608
      6          6           0       -1.466317   -1.208788    0.023054
      7          9           0        0.591681    0.007141    0.026272
      8          1           0       -0.944704    2.137737   -0.002847
      9          1           0       -3.410305    2.136627   -0.019502
     10          1           0       -4.644906   -0.002114   -0.009040
     11          1           0       -3.405361   -2.146641    0.018195
     12          1           0       -0.906836   -2.134702    0.034978
     13          8           0        3.221780    0.003375    0.044082
     14          6           0        4.427178    0.000272    0.052256
     15          1           0        4.970884    0.007974    1.008826
     16          1           0        4.983763   -0.008784   -0.896862
     17          1           0        0.904836    0.023482    1.875178
     18          9           0        0.737963    0.031446    2.785507
     19          1           0        0.959782    1.774307   -1.012296
     20          9           0        0.802166    2.558495   -1.475393
     21          1           0        0.964822   -1.797843   -0.992348
     22          9           0        0.807623   -2.590049   -1.441531
 ---------------------------------------------------------------------
 Rotational constants (GHZ):           0.8682460           0.4256126           0.3893509

 **********************************************************************

            Population analysis using the SCF Density.

 **********************************************************************

 Orbital symmetries:
       Occupied  (A) (A) (A) (A) (A) (A) (A) (A) (A) (A) (A) (A)
                 (A) (A) (A) (A) (A) (A) (A) (A) (A) (A) (A) (A)
                 (A) (A) (A) (A) (A) (A) (A) (A) (A) (A) (A) (A)
                 (A) (A) (A) (A) (A) (A) (A) (A) (A) (A) (A) (A)
       Virtual   (A) (A) (A) (A) (A) (A) (A) (A) (A) (A) (A) (A)
                 (A) (A) (A) (A) (A) (A) (A) (A) (A) (A) (A) (A)
                 (A) (A) (A) (A) (A) (A) (A) (A) (A) (A) (A) (A)
                 (A) (A) (A) (A) (A) (A) (A) (A) (A) (A) (A) (A)
                 (A) (A) (A) (A) (A) (A) (A) (A) (A) (A) (A) (A)
                 (A) (A) (A) (A) (A) (A) (A) (A) (A) (A) (A) (A)
                 (A) (A) (A) (A) (A) (A) (A) (A) (A) (A) (A) (A)
                 (A) (A) (A) (A) (A) (A) (A) (A) (A) (A) (A) (A)
                 (A) (A) (A) (A) (A) (A) (A) (A) (A) (A) (A) (A)
                 (A) (A) (A) (A) (A) (A) (A) (A) (A) (A) (A) (A)
                 (A) (A) (A) (A) (A) (A) (A) (A) (A) (A) (A) (A)
                 (A) (A) (A) (A) (A) (A) (A) (A) (A) (A) (A) (A)
                 (A) (A) (A) (A) (A) (A) (A) (A) (A) (A) (A) (A)
                 (A) (A) (A) (A) (A) (A) (A) (A) (A) (A) (A) (A)
                 (A) (A) (A) (A) (A) (A) (A) (A) (A) (A) (A) (A)
                 (A) (A) (A) (A) (A) (A) (A) (A) (A) (A) (A) (A)
                 (A) (A) (A) (A) (A) (A) (A) (A) (A) (A) (A) (A)
                 (A) (A) (A) (A) (A) (A) (A) (A) (A) (A) (A) (A)
                 (A) (A) (A) (A) (A) (A) (A) (A) (A) (A) (A) (A)
                 (A) (A) (A) (A) (A) (A) (A) (A) (A) (A) (A) (A)
                 (A) (A) (A) (A) (A) (A) (A) (A) (A) (A) (A) (A)
                 (A) (A) (A) (A) (A) (A) (A) (A) (A) (A) (A) (A)
                 (A) (A) (A) (A) (A) (A) (A) (A) (A) (A) (A) (A)
                 (A) (A) (A) (A) (A) (A) (A) (A) (A)
 The electronic state is 1-A.
 Alpha  occ. eigenvalues --  -25.30497 -25.23908 -25.23858 -25.23206 -19.64828
 Alpha  occ. eigenvalues --  -10.65352 -10.64120 -10.57031 -10.56774 -10.56683
 Alpha  occ. eigenvalues --  -10.56436 -10.55931  -1.41308  -1.34996  -1.34940
 Alpha  occ. eigenvalues --   -1.34232  -1.19475  -0.99115  -0.87283  -0.87095
 Alpha  occ. eigenvalues --   -0.73210  -0.73093  -0.72140  -0.66021  -0.65479
 Alpha  occ. eigenvalues --   -0.65170  -0.64575  -0.60272  -0.59885  -0.59213
 Alpha  occ. eigenvalues --   -0.58477  -0.54326  -0.53558  -0.53255  -0.52264
 Alpha  occ. eigenvalues --   -0.52220  -0.51920  -0.51638  -0.51626  -0.51564
 Alpha  occ. eigenvalues --   -0.50299  -0.48013  -0.46000  -0.44601  -0.42532
 Alpha  occ. eigenvalues --   -0.35151  -0.33262  -0.32860
 Alpha virt. eigenvalues --   -0.01008  -0.00571  -0.00264   0.00349   0.00710
 Alpha virt. eigenvalues --    0.01236   0.01981   0.02111   0.03122   0.03463
 Alpha virt. eigenvalues --    0.04749   0.05700   0.06063   0.06932   0.07676
 Alpha virt. eigenvalues --    0.08430   0.09133   0.09989   0.10687   0.11438
 Alpha virt. eigenvalues --    0.11626   0.12163   0.12553   0.12865   0.13310
 Alpha virt. eigenvalues --    0.13666   0.13792   0.14201   0.14339   0.14903
 Alpha virt. eigenvalues --    0.15401   0.16019   0.17060   0.17518   0.17691
 Alpha virt. eigenvalues --    0.18336   0.18961   0.19908   0.19939   0.20656
 Alpha virt. eigenvalues --    0.20748   0.21161   0.21736   0.22209   0.24607
 Alpha virt. eigenvalues --    0.25603   0.26417   0.26847   0.27468   0.28615
 Alpha virt. eigenvalues --    0.28820   0.29393   0.29810   0.29891   0.31607
 Alpha virt. eigenvalues --    0.31747   0.32245   0.33847   0.34182   0.34849
 Alpha virt. eigenvalues --    0.35619   0.35903   0.37336   0.37686   0.38029
 Alpha virt. eigenvalues --    0.38642   0.38727   0.39783   0.40532   0.42241
 Alpha virt. eigenvalues --    0.42443   0.44453   0.44824   0.46245   0.46782
 Alpha virt. eigenvalues --    0.50246   0.51996   0.53672   0.54826   0.56586
 Alpha virt. eigenvalues --    0.57137   0.57708   0.58344   0.58835   0.59675
 Alpha virt. eigenvalues --    0.60403   0.60946   0.61325   0.62599   0.62660
 Alpha virt. eigenvalues --    0.63974   0.65840   0.66246   0.67334   0.67620
 Alpha virt. eigenvalues --    0.69840   0.73510   0.74612   0.74967   0.76209
 Alpha virt. eigenvalues --    0.76308   0.77635   0.80139   0.81481   0.84060
 Alpha virt. eigenvalues --    0.87341   0.87534   0.89131   0.91192   0.92462
 Alpha virt. eigenvalues --    0.94205   0.94349   1.01612   1.03279   1.04332
 Alpha virt. eigenvalues --    1.05244   1.06260   1.06702   1.06730   1.13164
 Alpha virt. eigenvalues --    1.15111   1.16879   1.17973   1.19774   1.21935
 Alpha virt. eigenvalues --    1.23466   1.30938   1.31193   1.33037   1.34064
 Alpha virt. eigenvalues --    1.35196   1.36171   1.36648   1.37529   1.38507
 Alpha virt. eigenvalues --    1.42246   1.42561   1.45288   1.46083   1.47013
 Alpha virt. eigenvalues --    1.49108   1.49976   1.52195   1.52869   1.53544
 Alpha virt. eigenvalues --    1.55248   1.55620   1.56569   1.58780   1.59402
 Alpha virt. eigenvalues --    1.59973   1.60728   1.60908   1.62361   1.65091
 Alpha virt. eigenvalues --    1.67134   1.68851   1.69439   1.71051   1.72402
 Alpha virt. eigenvalues --    1.75443   1.77170   1.77806   1.78683   1.81377
 Alpha virt. eigenvalues --    1.86099   1.87806   1.90071   1.91110   1.93612
 Alpha virt. eigenvalues --    1.93884   1.94189   1.94642   1.96931   1.97808
 Alpha virt. eigenvalues --    2.01122   2.01609   2.03412   2.05548   2.08816
 Alpha virt. eigenvalues --    2.09575   2.10774   2.14849   2.17820   2.25055
 Alpha virt. eigenvalues --    2.25744   2.29962   2.31251   2.34679   2.38519
 Alpha virt. eigenvalues --    2.43946   2.44628   2.47509   2.49053   2.52120
 Alpha virt. eigenvalues --    2.52629   2.53890   2.57842   2.61054   2.62252
 Alpha virt. eigenvalues --    2.65464   2.66909   2.70385   2.71599   2.72701
 Alpha virt. eigenvalues --    2.72869   2.74341   2.75946   2.76126   2.76561
 Alpha virt. eigenvalues --    2.84341   2.85244   2.85377   2.88431   2.93916
 Alpha virt. eigenvalues --    2.94990   2.95174   2.98096   3.00114   3.13974
 Alpha virt. eigenvalues --    3.19738   3.23114   3.38548   3.39268   3.42570
 Alpha virt. eigenvalues --    3.48112   3.53080   3.55329   3.56230   3.66035
 Alpha virt. eigenvalues --    3.74819   3.78006   3.85203   3.88587   3.88818
 Alpha virt. eigenvalues --    3.88864   3.89047   3.89461   3.89555   3.91187
 Alpha virt. eigenvalues --    4.00249   4.02752   4.07672   4.08730   4.11519
 Alpha virt. eigenvalues --    4.12024   4.12841   4.12988   4.13934   4.14113
 Alpha virt. eigenvalues --    4.15866   4.18168   4.20715   4.85124   4.87872
 Alpha virt. eigenvalues --    4.88515   4.90024   4.90127   5.11877   5.21463
 Alpha virt. eigenvalues --    5.81404   6.42090   6.43233   6.43469   6.47443
 Alpha virt. eigenvalues --    6.49579   6.50102   6.50661   6.55355   6.85066
 Alpha virt. eigenvalues --    6.86337   6.87567   6.90816  23.68742  24.00037
 Alpha virt. eigenvalues --   24.01101  24.04694  24.14988  24.16561  24.26936
 Alpha virt. eigenvalues --   50.05928  66.90729  66.90867  66.91298  66.93498
          Condensed to atoms (all electrons):
               1          2          3          4          5          6
     1  C   15.369997  -1.803827  -2.880308  -0.904229  -2.416501  -1.182113
     2  C   -1.803827  15.204083   2.189162  -0.698294  -1.024866  -8.024182
     3  C   -2.880308   2.189162   7.566750   0.816226  -0.431559  -1.345863
     4  C   -0.904229  -0.698294   0.816226   6.401354   0.744396  -0.550990
     5  C   -2.416501  -1.024866  -0.431559   0.744396   7.187179   1.858796
     6  C   -1.182113  -8.024182  -1.345863  -0.550990   1.858796  15.064395
     7  F    0.286572  -0.204986  -0.018874   0.018245  -0.017155  -0.194779
     8  H   -0.177845   0.463525   0.006905  -0.003437   0.030333  -0.024041
     9  H    0.002771  -0.036861   0.402337  -0.054926  -0.004313   0.024933
    10  H    0.024375  -0.016596  -0.062268   0.460127  -0.060497  -0.012516
    11  H    0.007058   0.028801  -0.004739  -0.056413   0.399887  -0.041512
    12  H   -0.189806  -0.038692   0.028094   0.001623   0.010833   0.481313
    13  O    0.018010  -0.011320   0.000079   0.000300   0.000260  -0.009433
    14  C   -0.002641  -0.000440   0.000898   0.000236   0.000915   0.000238
    15  H   -0.000250   0.000178   0.000040  -0.000087   0.000038   0.000204
    16  H    0.000231  -0.000075  -0.000038   0.000035  -0.000030  -0.000033
    17  H    0.016209  -0.003116  -0.005822  -0.002159  -0.005693  -0.008237
    18  F    0.222658  -0.065330  -0.026353   0.003158  -0.024630  -0.064237
    19  H   -0.039637   0.046080   0.016240   0.006615  -0.006749  -0.019152
    20  F   -0.058171   0.081509   0.012279  -0.002936   0.002071  -0.025150
    21  H   -0.039606  -0.019234  -0.007175   0.006365   0.015581   0.048232
    22  F   -0.052965  -0.023910   0.001762  -0.002762   0.008570   0.077803
               7          8          9         10         11         12
     1  C    0.286572  -0.177845   0.002771   0.024375   0.007058  -0.189806
     2  C   -0.204986   0.463525  -0.036861  -0.016596   0.028801  -0.038692
     3  C   -0.018874   0.006905   0.402337  -0.062268  -0.004739   0.028094
     4  C    0.018245  -0.003437  -0.054926   0.460127  -0.056413   0.001623
     5  C   -0.017155   0.030333  -0.004313  -0.060497   0.399887   0.010833
     6  C   -0.194779  -0.024041   0.024933  -0.012516  -0.041512   0.481313
     7  F    9.244036  -0.002429  -0.001548   0.000697  -0.001589  -0.002479
     8  H   -0.002429   0.502991  -0.009701   0.000889   0.000819   0.001013
     9  H   -0.001548  -0.009701   0.436272  -0.007960   0.000769   0.000757
    10  H    0.000697   0.000889  -0.007960   0.456946  -0.007702   0.000878
    11  H   -0.001589   0.000819   0.000769  -0.007702   0.435438  -0.009363
    12  H   -0.002479   0.001013   0.000757   0.000878  -0.009363   0.505193
    13  O    0.009010  -0.000582   0.000000   0.000008  -0.000000  -0.000639
    14  C    0.001221   0.000384  -0.000017   0.000008  -0.000017   0.000398
    15  H   -0.000615   0.000150   0.000002  -0.000000   0.000002   0.000161
    16  H   -0.000292  -0.000048  -0.000002  -0.000000  -0.000002  -0.000050
    17  H    0.036931  -0.003599   0.000451  -0.000197   0.000456  -0.003755
    18  F   -0.016334   0.001827  -0.000640   0.000141  -0.000629   0.001673
    19  H    0.019928  -0.010845   0.000830   0.000053  -0.000262   0.001528
    20  F   -0.006169   0.006223  -0.001193  -0.000087   0.000181  -0.000830
    21  H    0.019116   0.001532  -0.000269   0.000055   0.000850  -0.011011
    22  F   -0.005648  -0.000825   0.000183  -0.000083  -0.001268   0.006862
              13         14         15         16         17         18
     1  C    0.018010  -0.002641  -0.000250   0.000231   0.016209   0.222658
     2  C   -0.011320  -0.000440   0.000178  -0.000075  -0.003116  -0.065330
     3  C    0.000079   0.000898   0.000040  -0.000038  -0.005822  -0.026353
     4  C    0.000300   0.000236  -0.000087   0.000035  -0.002159   0.003158
     5  C    0.000260   0.000915   0.000038  -0.000030  -0.005693  -0.024630
     6  C   -0.009433   0.000238   0.000204  -0.000033  -0.008237  -0.064237
     7  F    0.009010   0.001221  -0.000615  -0.000292   0.036931  -0.016334
     8  H   -0.000582   0.000384   0.000150  -0.000048  -0.003599   0.001827
     9  H    0.000000  -0.000017   0.000002  -0.000002   0.000451  -0.000640
    10  H    0.000008   0.000008  -0.000000  -0.000000  -0.000197   0.000141
    11  H   -0.000000  -0.000017   0.000002  -0.000002   0.000456  -0.000629
    12  H   -0.000639   0.000398   0.000161  -0.000050  -0.003755   0.001673
    13  O    8.218117   0.233834  -0.089975  -0.089057   0.009095  -0.000870
    14  C    0.233834   4.913241   0.416341   0.414475  -0.002396  -0.000171
    15  H   -0.089975   0.416341   0.613798  -0.081890  -0.000178   0.000150
    16  H   -0.089057   0.414475  -0.081890   0.611544  -0.000124  -0.000050
    17  H    0.009095  -0.002396  -0.000178  -0.000124   0.363192   0.318331
    18  F   -0.000870  -0.000171   0.000150  -0.000050   0.318331   8.934070
    19  H    0.008641  -0.000915  -0.000260  -0.000351   0.003512  -0.002510
    20  F   -0.000956   0.000439  -0.000041  -0.000108  -0.002128   0.000510
    21  H    0.008560  -0.000868  -0.000249  -0.000361   0.003485  -0.002405
    22  F   -0.000955   0.000439  -0.000043  -0.000111  -0.002063   0.000494
              19         20         21         22
     1  C   -0.039637  -0.058171  -0.039606  -0.052965
     2  C    0.046080   0.081509  -0.019234  -0.023910
     3  C    0.016240   0.012279  -0.007175   0.001762
     4  C    0.006615  -0.002936   0.006365  -0.002762
     5  C   -0.006749   0.002071   0.015581   0.008570
     6  C   -0.019152  -0.025150   0.048232   0.077803
     7  F    0.019928  -0.006169   0.019116  -0.005648
     8  H   -0.010845   0.006223   0.001532  -0.000825
     9  H    0.000830  -0.001193  -0.000269   0.000183
    10  H    0.000053  -0.000087   0.000055  -0.000083
    11  H   -0.000262   0.000181   0.000850  -0.001268
    12  H    0.001528  -0.000830  -0.011011   0.006862
    13  O    0.008641  -0.000956   0.008560  -0.000955
    14  C   -0.000915   0.000439  -0.000868   0.000439
    15  H   -0.000260  -0.000041  -0.000249  -0.000043
    16  H   -0.000351  -0.000108  -0.000361  -0.000111
    17  H    0.003512  -0.002128   0.003485  -0.002063
    18  F   -0.002510   0.000510  -0.002405   0.000494
    19  H    0.398970   0.321366   0.000881  -0.001273
    20  F    0.321366   8.936226  -0.001279   0.000530
    21  H    0.000881  -0.001279   0.398781   0.321364
    22  F   -0.001273   0.000530   0.321364   8.935596
 Mulliken charges:
               1
     1  C   -0.199983
     2  C   -0.041609
     3  C   -0.257775
     4  C   -0.182446
     5  C   -0.266868
     6  C   -0.053674
     7  F   -0.162860
     8  H    0.216763
     9  H    0.248124
    10  H    0.223731
    11  H    0.249235
    12  H    0.216301
    13  O   -0.302128
    14  C    0.024398
    15  H    0.142525
    16  H    0.146335
    17  H    0.287804
    18  F   -0.278852
    19  H    0.257310
    20  F   -0.262286
    21  H    0.257654
    22  F   -0.261698
 Sum of Mulliken charges =  -0.00000
 Mulliken charges with hydrogens summed into heavy atoms:
               1
     1  C   -0.199983
     2  C    0.175154
     3  C   -0.009651
     4  C    0.041284
     5  C   -0.017632
     6  C    0.162627
     7  F   -0.162860
    13  O   -0.302128
    14  C    0.313257
    18  F    0.008952
    20  F   -0.004976
    22  F   -0.004044
 Electronic spatial extent (au):  <R**2>=           3067.3842
 Charge=              0.0000 electrons
 Dipole moment (field-independent basis, Debye):
    X=              0.9383    Y=             -0.0050    Z=             -0.1540  Tot=              0.9509
 Quadrupole moment (field-independent basis, Debye-Ang):
   XX=            -32.5563   YY=            -76.5646   ZZ=            -87.1449
   XY=             -0.1272   XZ=              0.3405   YZ=             -0.1224
 Traceless Quadrupole moment (field-independent basis, Debye-Ang):
   XX=             32.8656   YY=            -11.1426   ZZ=            -21.7230
   XY=             -0.1272   XZ=              0.3405   YZ=             -0.1224
 Octapole moment (field-independent basis, Debye-Ang**2):
  XXX=            133.1619  YYY=              0.8934  ZZZ=            -23.6332  XYY=            -12.2728
  XXY=              0.2060  XXZ=              1.0110  XZZ=             17.3891  YZZ=             -0.5274
  YYZ=             26.1715  XYZ=              0.2265
 Hexadecapole moment (field-independent basis, Debye-Ang**3):
 XXXX=          -1528.6935 YYYY=           -843.8194 ZZZZ=           -589.0677 XXXY=             -0.9413
 XXXZ=              7.6296 YYYX=              0.1544 YYYZ=             -0.6735 ZZZX=            -16.1321
 ZZZY=              0.1408 XXYY=           -503.5427 XXZZ=           -513.5518 YYZZ=           -255.5719
 XXYZ=             -0.4405 YYXZ=             20.2400 ZZXY=             -0.6946
 N-N= 7.016973098009D+02 E-N=-3.167738662800D+03  KE= 7.450200302504D+02
 1\1\GINC-R820\POpt\RM062X\6-311++G(d,p)\C7H10F4O1\ZJXU\17-Jun-2024\1\\
 # m062x 6-311++G(d,p) opt=z-matrix scrf=(solvent=water)\\test\\0,1\C\C
 ,1,d1\C,2,d2,1,120.\C,3,d3,2,120.,1,0.,0\C,4,d4,3,120.,2,0.,0\C,5,d5,4
 ,120.,3,0.,0\F,1,d6,2,120.,3,180.,0\H,2,d7,3,120.,4,180.,0\H,3,d8,4,12
 0.,5,180.,0\H,4,d9,5,120.,6,180.,0\H,5,d10,6,120.,1,180.,0\H,6,d11,1,1
 20.,2,180.,0\O,7,d12,1,179.9,3,180.,0\C,13,d13,1,179.9,2,180.,0\H,14,d
 14,1,120.,2,90.,0\H,14,d15,1,120.,2,-90.,0\H,7,d16,1,100.,2,90.,0\F,17
 ,d17,7,160.,1,0.,0\H,7,d18,1,100.,2,-30.,0\F,19,d19,7,160.,1,0.,0\H,7,
 d20,1,100.,2,-150.,0\F,21,d21,7,160.,1,0.,0\\d1=1.37811587\d2=1.383115
 87\d3=1.38690771\d4=1.394551\d5=1.3981864\d6=1.38818864\d7=1.08273616\
 d8=1.08234649\d9=1.08289279\d10=1.08227894\d11=1.08188668\d12=2.630162
 25\d13=1.2054295\d14=1.1003191\d15=1.10031595\d16=1.87530999\d17=0.925
 53106\d18=2.0825461\d19=0.92425738\d20=2.1058944\d21=0.92415675\\Versi
 on=ES64L-G16RevB.01\State=1-A\HF=-747.2930173\RMSD=5.152e-09\RMSF=4.35
 0e-03\Dipole=-0.3185772,-0.0630885,-0.1856896\Quadrupole=16.1652835,-1
 6.1530606,-0.0122229,0.0296429,14.2205663,-0.0072825\PG=C01 [X(C7H10F4
 O1)]\\@


 IT CANNOT BE MY BEAUTY, FOR I HAVE NONE; AND IT CANNOT BE MY WIT,
 FOR HE HAS NOT ENOUGH TO KNOW THAT I HAVE ANY.
 -- CATHARINE SEDLEY, PUZZLED ABOUT WHY SHE WAS MISTRESS TO JAMES II
 Job cpu time:       0 days  2 hours 55 minutes  9.0 seconds.
 Elapsed time:       0 days  0 hours 43 minutes 51.5 seconds.
 File lengths (MBytes):  RWF=    236 Int=      0 D2E=      0 Chk=     12 Scr=      1
 Normal termination of Gaussian 16 at Mon Jun 17 10:31:49 2024.
