 Entering Gaussian System, Link 0=g16
 Input=model_H2b.gjf
 Output=model_H2b.log
 Initial command:
 /home/zjxu/prog/g16/l1.exe "/home/zjxu/zjhan/5_model/HF/water/Gau-47897.inp" -scrdir="/home/zjxu/zjhan/5_model/HF/water/"
 Entering Link 1 = /home/zjxu/prog/g16/l1.exe PID=     47898.
  
 Copyright (c) 1988-2017, Gaussian, Inc.  All Rights Reserved.
  
 This is part of the Gaussian(R) 16 program.  It is based on
 the Gaussian(R) 09 system (copyright 2009, Gaussian, Inc.),
 the Gaussian(R) 03 system (copyright 2003, Gaussian, Inc.),
 the Gaussian(R) 98 system (copyright 1998, Gaussian, Inc.),
 the Gaussian(R) 94 system (copyright 1995, Gaussian, Inc.),
 the Gaussian 92(TM) system (copyright 1992, Gaussian, Inc.),
 the Gaussian 90(TM) system (copyright 1990, Gaussian, Inc.),
 the Gaussian 88(TM) system (copyright 1988, Gaussian, Inc.),
 the Gaussian 86(TM) system (copyright 1986, Carnegie Mellon
 University), and the Gaussian 82(TM) system (copyright 1983,
 Carnegie Mellon University). Gaussian is a federally registered
 trademark of Gaussian, Inc.
  
 This software contains proprietary and confidential information,
 including trade secrets, belonging to Gaussian, Inc.
  
 This software is provided under written license and may be
 used, copied, transmitted, or stored only in accord with that
 written license.
  
 The following legend is applicable only to US Government
 contracts under FAR:
  
                    RESTRICTED RIGHTS LEGEND
  
 Use, reproduction and disclosure by the US Government is
 subject to restrictions as set forth in subparagraphs (a)
 and (c) of the Commercial Computer Software - Restricted
 Rights clause in FAR 52.227-19.
  
 Gaussian, Inc.
 340 Quinnipiac St., Bldg. 40, Wallingford CT 06492
  
  
 ---------------------------------------------------------------
 Warning -- This program may not be used in any manner that
 competes with the business of Gaussian, Inc. or will provide
 assistance to any competitor of Gaussian, Inc.  The licensee
 of this program is prohibited from giving any competitor of
 Gaussian, Inc. access to this program.  By using this program,
 the user acknowledges that Gaussian, Inc. is engaged in the
 business of creating and licensing software in the field of
 computational chemistry and represents and warrants to the
 licensee that it is not a competitor of Gaussian, Inc. and that
 it will not use this program in any manner prohibited above.
 ---------------------------------------------------------------
  

 Cite this work as:
 Gaussian 16, Revision B.01,
 M. J. Frisch, G. W. Trucks, H. B. Schlegel, G. E. Scuseria, 
 M. A. Robb, J. R. Cheeseman, G. Scalmani, V. Barone, 
 G. A. Petersson, H. Nakatsuji, X. Li, M. Caricato, A. V. Marenich, 
 J. Bloino, B. G. Janesko, R. Gomperts, B. Mennucci, H. P. Hratchian, 
 J. V. Ortiz, A. F. Izmaylov, J. L. Sonnenberg, D. Williams-Young, 
 F. Ding, F. Lipparini, F. Egidi, J. Goings, B. Peng, A. Petrone, 
 T. Henderson, D. Ranasinghe, V. G. Zakrzewski, J. Gao, N. Rega, 
 G. Zheng, W. Liang, M. Hada, M. Ehara, K. Toyota, R. Fukuda, 
 J. Hasegawa, M. Ishida, T. Nakajima, Y. Honda, O. Kitao, H. Nakai, 
 T. Vreven, K. Throssell, J. A. Montgomery, Jr., J. E. Peralta, 
 F. Ogliaro, M. J. Bearpark, J. J. Heyd, E. N. Brothers, K. N. Kudin, 
 V. N. Staroverov, T. A. Keith, R. Kobayashi, J. Normand, 
 K. Raghavachari, A. P. Rendell, J. C. Burant, S. S. Iyengar, 
 J. Tomasi, M. Cossi, J. M. Millam, M. Klene, C. Adamo, R. Cammi, 
 J. W. Ochterski, R. L. Martin, K. Morokuma, O. Farkas, 
 J. B. Foresman, and D. J. Fox, Gaussian, Inc., Wallingford CT, 2016.
 
 ******************************************
 Gaussian 16:  ES64L-G16RevB.01 20-Dec-2017
                29-Mar-2024 
 ******************************************
 %mem=2GB
 %nproc=2
 Will use up to    2 processors via shared memory.
 %chk=model_H2b
 -------------------------------------------------------
 # m062x 6-311++G(d,p) opt=z-matrix scrf=(solvent=water)
 -------------------------------------------------------
 1/10=7,18=40,26=3,38=1/1,3;
 2/12=2,17=6,18=5,29=3,40=1/2;
 3/5=4,6=6,7=1111,11=2,25=1,30=1,70=2201,71=1,72=1,74=-55/1,2,3;
 4//1;
 5/5=2,38=5,53=1/2;
 6/7=2,8=2,9=2,10=2,28=1/1;
 7/29=1/1,2,3,16;
 1/10=7,18=40,26=3/3(2);
 2/29=3/2;
 99//99;
 2/29=3/2;
 3/5=4,6=6,7=1111,11=2,25=1,30=1,70=2205,71=1,72=1,74=-55/1,2,3;
 4/5=5,16=3,69=1/1;
 5/5=2,38=5,53=1/2;
 7//1,2,3,16;
 1/18=40,26=3/3(-5);
 2/29=3/2;
 6/7=2,8=2,9=2,10=2,19=2,28=1/1;
 99/9=1/99;
 ----
 test
 ----
 Symbolic Z-matrix:
 Charge =  0 Multiplicity = 1
 C1
 C2                   1    d1
 C3                   2    d2       1     120. 
 C4                   3    d3       2     120.     1     0.       0
 C5                   4    d4       3     120.     2     0.       0
 C6                   5    d5       4     120.     3     0.       0
 F7                   1    d6       2     120.     3     180.     0
 H8                   2    d7       3     120.     4     180.     0
 H9                   3    d8       4     120.     5     180.     0
 H10                  4    d9       5     120.     6     180.     0
 H11                  5    d10      6     120.     1     180.     0
 H12                  6    d11      1     120.     2     180.     0
 O13                  7    d12      1     179.9    3     180.     0
 C14                  13   d13      1     179.9    2     180.     0
 H15                  14   d14      1     120.     2     90.      0
 H16                  14   d15      1     120.     2    -90.      0
 H17                  7    d16      1     100.     2     90.      0
 F18                  17   d17      7     160.     1     0.       0
 H19                  7    d18      1     100.     2    -90.      0
 F20                  19   d19      7     160.     1     0.       0
       Variables:
  d1                    1.3                      
  d2                    1.3                      
  d3                    1.3                      
  d4                    1.3                      
  d5                    1.3                      
  d6                    1.4                      
  d7                    1.                       
  d8                    1.                       
  d9                    1.                       
  d10                   1.                       
  d11                   1.                       
  d12                   2.8                      
  d13                   1.2                      
  d14                   1.                       
  d15                   1.                       
  d16                   2.3                      
  d17                   0.9                      
  d18                   2.3                      
  d19                   0.9                      
 

 GradGradGradGradGradGradGradGradGradGradGradGradGradGradGradGradGradGrad
 Berny optimization.
 Initialization pass.
                       ----------------------------
                       !    Initial Parameters    !
                       ! (Angstroms and Degrees)  !
 ----------------------                            ----------------------
 !      Name          Value   Derivative information (Atomic Units)     !
 ------------------------------------------------------------------------
 !       d1          1.3      estimate D2E/DX2                          !
 !       d2          1.3      estimate D2E/DX2                          !
 !       d3          1.3      estimate D2E/DX2                          !
 !       d4          1.3      estimate D2E/DX2                          !
 !       d5          1.3      estimate D2E/DX2                          !
 !       d6          1.4      estimate D2E/DX2                          !
 !       d7          1.0      estimate D2E/DX2                          !
 !       d8          1.0      estimate D2E/DX2                          !
 !       d9          1.0      estimate D2E/DX2                          !
 !       d10         1.0      estimate D2E/DX2                          !
 !       d11         1.0      estimate D2E/DX2                          !
 !       d12         2.8      estimate D2E/DX2                          !
 !       d13         1.2      estimate D2E/DX2                          !
 !       d14         1.0      estimate D2E/DX2                          !
 !       d15         1.0      estimate D2E/DX2                          !
 !       d16         2.3      estimate D2E/DX2                          !
 !       d17         0.9      estimate D2E/DX2                          !
 !       d18         2.3      estimate D2E/DX2                          !
 !       d19         0.9      estimate D2E/DX2                          !
 ------------------------------------------------------------------------
 Trust Radius=3.00D-01 FncErr=1.00D-07 GrdErr=1.00D-06 EigMax=2.50D+02 EigMin=1.00D-04
 Number of steps in this run=     29 maximum allowed number of steps=    100.
 GradGradGradGradGradGradGradGradGradGradGradGradGradGradGradGradGradGrad

 ---------------------------------------------------------------------------------------------------
                            Z-MATRIX (ANGSTROMS AND DEGREES)
   CD    Cent   Atom    N1       Length/X        N2       Alpha/Y        N3        Beta/Z          J
 ---------------------------------------------------------------------------------------------------
      1      1  C 
      2      2  C        1   1.300000(     1)
      3      3  C        2   1.300000(     2)      1  120.000(    20)
      4      4  C        3   1.300000(     3)      2  120.000(    21)      1    0.000(    38)      0
      5      5  C        4   1.300000(     4)      3  120.000(    22)      2    0.000(    39)      0
      6      6  C        5   1.300000(     5)      4  120.000(    23)      3    0.000(    40)      0
      7      7  F        1   1.400000(     6)      2  120.000(    24)      3  180.000(    41)      0
      8      8  H        2   1.000000(     7)      3  120.000(    25)      4  180.000(    42)      0
      9      9  H        3   1.000000(     8)      4  120.000(    26)      5  180.000(    43)      0
     10     10  H        4   1.000000(     9)      5  120.000(    27)      6  180.000(    44)      0
     11     11  H        5   1.000000(    10)      6  120.000(    28)      1  180.000(    45)      0
     12     12  H        6   1.000000(    11)      1  120.000(    29)      2  180.000(    46)      0
     13     13  O        7   2.800000(    12)      1  179.900(    30)      3  180.000(    47)      0
     14     14  C       13   1.200000(    13)      1  179.900(    31)      2  180.000(    48)      0
     15     15  H       14   1.000000(    14)      1  120.000(    32)      2   90.000(    49)      0
     16     16  H       14   1.000000(    15)      1  120.000(    33)      2  -90.000(    50)      0
     17     17  H        7   2.300000(    16)      1  100.000(    34)      2   90.000(    51)      0
     18     18  F       17   0.900000(    17)      7  160.000(    35)      1    0.000(    52)      0
     19     19  H        7   2.300000(    18)      1  100.000(    36)      2  -90.000(    53)      0
     20     20  F       19   0.900000(    19)      7  160.000(    37)      1    0.000(    54)      0
 ---------------------------------------------------------------------------------------------------
                         Z-Matrix orientation:                         
 ---------------------------------------------------------------------
 Center     Atomic      Atomic             Coordinates (Angstroms)
 Number     Number       Type             X           Y           Z
 ---------------------------------------------------------------------
      1          6           0        0.000000    0.000000    0.000000
      2          6           0        0.000000    0.000000    1.300000
      3          6           0        1.125833    0.000000    1.950000
      4          6           0        2.251666    0.000000    1.300000
      5          6           0        2.251666    0.000000   -0.000000
      6          6           0        1.125833    0.000000   -0.650000
      7          9           0       -1.212436   -0.000000   -0.700000
      8          1           0       -0.866025   -0.000000    1.800000
      9          1           0        1.125833   -0.000000    2.950000
     10          1           0        3.117691   -0.000000    1.800000
     11          1           0        3.117691   -0.000000   -0.500000
     12          1           0        1.125833   -0.000000   -1.650000
     13          8           0       -3.634860   -0.000000   -2.104230
     14          6           0       -4.672340   -0.000000   -2.707251
     15          1           0       -5.104965    0.866025   -2.957922
     16          1           0       -5.104965   -0.866025   -2.957922
     17          1           0       -1.558318    2.265058   -0.899695
     18          9           0       -1.422973    3.151385   -0.821554
     19          1           0       -1.558318   -2.265058   -0.899695
     20          9           0       -1.422973   -3.151385   -0.821554
 ---------------------------------------------------------------------
                    Distance matrix (angstroms):
                    1          2          3          4          5
     1  C    0.000000
     2  C    1.300000   0.000000
     3  C    2.251666   1.300000   0.000000
     4  C    2.600000   2.251666   1.300000   0.000000
     5  C    2.251666   2.600000   2.251666   1.300000   0.000000
     6  C    1.300000   2.251666   2.600000   2.251666   1.300000
     7  F    1.400000   2.338803   3.534119   4.000000   3.534119
     8  H    1.997498   1.000000   1.997498   3.157531   3.600000
     9  H    3.157531   1.997498   1.000000   1.997498   3.157531
    10  H    3.600000   3.157531   1.997498   1.000000   1.997498
    11  H    3.157531   3.600000   3.157531   1.997498   1.000000
    12  H    1.997498   3.157531   3.600000   3.157531   1.997498
    13  O    4.199999   4.980059   6.253077   6.799997   6.251317
    14  C    5.399997   6.155390   7.436988   7.999995   7.434452
    15  H    5.963218   6.703772   7.978755   8.543999   7.976172
    16  H    5.963218   6.703772   7.978755   8.543999   7.976172
    17  H    2.892800   3.521009   4.522822   4.948245   4.522822
    18  F    3.554016   4.056731   4.910107   5.285375   4.910107
    19  H    2.892800   3.521009   4.522822   4.948245   4.522822
    20  F    3.554016   4.056731   4.910107   5.285375   4.910107
                    6          7          8          9         10
     6  C    0.000000
     7  F    2.338803   0.000000
     8  H    3.157531   2.523886   0.000000
     9  H    3.600000   4.334743   2.300000   0.000000
    10  H    3.157531   5.000000   3.983717   2.300000   0.000000
    11  H    1.997498   4.334743   4.600000   3.983717   2.300000
    12  H    1.000000   2.523886   3.983717   4.600000   3.983717
    13  O    4.977849   2.800000   4.786382   6.943301   7.799997
    14  C    6.152324   3.999999   5.899436   8.100821   8.999995
    15  H    6.700697   4.582575   6.430896   8.629970   9.539387
    16  H    6.700697   4.582575   6.430896   8.629970   9.539387
    17  H    3.521009   2.300000   3.591394   5.211076   5.855246
    18  F    4.056731   3.160748   4.136902   5.536448   6.117303
    19  H    3.521009   2.300000   3.591394   5.211076   5.855246
    20  F    4.056731   3.160748   4.136902   5.536448   6.117303
                   11         12         13         14         15
    11  H    0.000000
    12  H    2.300000   0.000000
    13  O    6.940497   4.782313   0.000000
    14  C    8.096700   5.893776   1.200000   0.000000
    15  H    8.625744   6.425224   1.907878   1.000000   0.000000
    16  H    8.625744   6.425224   1.907878   1.000000   1.732051
    17  H    5.211076   3.591394   3.300517   4.253807   4.332700
    18  F    5.536448   4.136902   4.058193   4.903618   4.831563
    19  H    5.211076   3.591394   3.300517   4.253807   5.159329
    20  F    5.536448   4.136902   4.058193   4.903618   5.853266
                   16         17         18         19         20
    16  H    0.000000
    17  H    5.159329   0.000000
    18  F    5.853266   0.900000   0.000000
    19  H    4.332700   4.530116   5.418697   0.000000
    20  F    4.831563   5.418697   6.302770   0.900000   0.000000
 Stoichiometry    C7H9F3O
 Framework group  CS[SG(C7H5FO),X(H4F2)]
 Deg. of freedom    34
 Full point group                 CS      NOp   2
 Largest Abelian subgroup         CS      NOp   2
 Largest concise Abelian subgroup CS      NOp   2
                         Standard orientation:                         
 ---------------------------------------------------------------------
 Center     Atomic      Atomic             Coordinates (Angstroms)
 Number     Number       Type             X           Y           Z
 ---------------------------------------------------------------------
      1          6           0       -0.001252   -0.790402   -0.000000
      2          6           0       -1.127085   -1.440402   -0.000000
      3          6           0       -1.127085   -2.740402   -0.000000
      4          6           0       -0.001252   -3.390402   -0.000000
      5          6           0        1.124581   -2.740402   -0.000000
      6          6           0        1.124581   -1.440402   -0.000000
      7          9           0       -0.001252    0.609598    0.000000
      8          1           0       -1.993110   -0.940402   -0.000000
      9          1           0       -1.993110   -3.240402   -0.000000
     10          1           0       -0.001252   -4.390402   -0.000000
     11          1           0        1.990606   -3.240402   -0.000000
     12          1           0        1.990606   -0.940402   -0.000000
     13          8           0        0.003635    3.409593    0.000000
     14          6           0        0.007126    4.609588    0.000000
     15          1           0        0.007901    5.109588    0.866025
     16          1           0        0.007901    5.109588   -0.866025
     17          1           0       -0.001252    1.008988    2.265058
     18          9           0       -0.001252    0.852705    3.151385
     19          1           0       -0.001252    1.008988   -2.265058
     20          9           0       -0.001252    0.852705   -3.151385
 ---------------------------------------------------------------------
 Rotational constants (GHZ):           1.0844055           0.4930931           0.3779130
 Standard basis: 6-311++G(d,p) (5D, 7F)
 There are   220 symmetry adapted cartesian basis functions of A'  symmetry.
 There are    96 symmetry adapted cartesian basis functions of A"  symmetry.
 There are   210 symmetry adapted basis functions of A'  symmetry.
 There are    95 symmetry adapted basis functions of A"  symmetry.
   305 basis functions,   477 primitive gaussians,   316 cartesian basis functions
    43 alpha electrons       43 beta electrons
       nuclear repulsion energy       583.9088757139 Hartrees.
 NAtoms=   20 NActive=   20 NUniq=   17 SFac= 1.38D+00 NAtFMM=   60 NAOKFM=F Big=F
 Integral buffers will be    131072 words long.
 Raffenetti 2 integral format.
 Two-electron integral symmetry is turned on.
 ------------------------------------------------------------------------------
 Polarizable Continuum Model (PCM)
 =================================
 Model                : PCM.
 Atomic radii         : UFF (Universal Force Field).
 Polarization charges : Total charges.
 Charge compensation  : None.
 Solution method      : On-the-fly selection.
 Cavity type          : Scaled VdW (van der Waals Surface) (Alpha=1.100).
 Cavity algorithm     : GePol (No added spheres)
                        Default sphere list used, NSphG=   20.
                        Lebedev-Laikov grids with approx.  5.0 points / Ang**2.
                        Smoothing algorithm: York/Karplus (Gamma=1.0000).
                        Polarization charges: spherical gaussians, with
                                              point-specific exponents (IZeta= 3).
                        Self-potential: point-specific (ISelfS= 7).
                        Self-field    : sphere-specific E.n sum rule (ISelfD= 2).
 1st derivatives      : Analytical E(r).r(x)/FMM algorithm (CHGder, D1EAlg=3).
                        Cavity 1st derivative terms included.
 Solvent              : Water, Eps=  78.355300 Eps(inf)=   1.777849
 ------------------------------------------------------------------------------
 Spheres list:
 ISph  on   Nord     Re0    Alpha      Xe            Ye            Ze
    1   C      1    1.9255  1.100     -0.001252     -0.790402     -0.000000
    2   C      2    1.9255  1.100     -1.127085     -1.440402     -0.000000
    3   C      3    1.9255  1.100     -1.127085     -2.740402     -0.000000
    4   C      4    1.9255  1.100     -0.001252     -3.390402     -0.000000
    5   C      5    1.9255  1.100      1.124581     -2.740402     -0.000000
    6   C      6    1.9255  1.100      1.124581     -1.440402     -0.000000
    7   F      7    1.6820  1.100     -0.001252      0.609598      0.000000
    8   H      8    1.4430  1.100     -1.993110     -0.940402     -0.000000
    9   H      9    1.4430  1.100     -1.993110     -3.240402     -0.000000
   10   H     10    1.4430  1.100     -0.001252     -4.390402     -0.000000
   11   H     11    1.4430  1.100      1.990606     -3.240402     -0.000000
   12   H     12    1.4430  1.100      1.990606     -0.940402     -0.000000
   13   O     13    1.7500  1.100      0.003635      3.409593      0.000000
   14   C     14    1.9255  1.100      0.007126      4.609588      0.000000
   15   H     15    1.4430  1.100      0.007901      5.109588      0.866025
   16   H     16    1.4430  1.100      0.007901      5.109588     -0.866025
   17   H     17    1.4430  1.100     -0.001252      1.008988      2.265058
   18   F     18    1.6820  1.100     -0.001252      0.852705      3.151385
   19   H     19    1.4430  1.100     -0.001252      1.008988     -2.265058
   20   F     20    1.6820  1.100     -0.001252      0.852705     -3.151385
 ------------------------------------------------------------------------------
 One-electron integrals computed using PRISM.
 NBasis=   305 RedAO= T EigKep=  3.67D-06  NBF=   210    95
 NBsUse=   304 1.00D-06 EigRej=  4.85D-07 NBFU=   209    95
 ExpMin= 3.60D-02 ExpMax= 1.14D+04 ExpMxC= 1.72D+03 IAcc=3 IRadAn=         5 AccDes= 0.00D+00
 Harris functional with IExCor= 1009 and IRadAn=       5 diagonalized for initial guess.
 HarFok:  IExCor= 1009 AccDes= 0.00D+00 IRadAn=         5 IDoV= 1 UseB2=F ITyADJ=14
 ICtDFT=  3500011 ScaDFX=  1.000000  1.000000  1.000000  1.000000
 FoFCou: FMM=F IPFlag=           0 FMFlag=      100000 FMFlg1=           0
         NFxFlg=           0 DoJE=T BraDBF=F KetDBF=T FulRan=T
         wScrn=  0.000000 ICntrl=       500 IOpCl=  0 I1Cent=   200000004 NGrid=           0
         NMat0=    1 NMatS0=      1 NMatT0=    0 NMatD0=    1 NMtDS0=    0 NMtDT0=    0
 Petite list used in FoFCou.
 Initial guess orbital symmetries:
       Occupied  (A') (A") (A') (A') (A') (A') (A') (A') (A') (A')
                 (A') (A') (A") (A') (A') (A') (A') (A') (A') (A')
                 (A') (A') (A') (A") (A") (A') (A') (A') (A') (A')
                 (A") (A') (A') (A') (A") (A') (A') (A") (A") (A')
                 (A") (A") (A")
       Virtual   (A') (A") (A") (A') (A') (A") (A') (A') (A') (A')
                 (A') (A") (A") (A') (A") (A') (A') (A') (A") (A')
                 (A') (A') (A") (A') (A') (A") (A') (A') (A") (A')
                 (A") (A') (A') (A') (A') (A') (A") (A') (A") (A')
                 (A") (A') (A') (A') (A') (A') (A') (A') (A") (A')
                 (A') (A") (A') (A') (A") (A') (A') (A') (A') (A")
                 (A') (A') (A') (A') (A') (A') (A') (A") (A') (A")
                 (A') (A') (A') (A') (A") (A") (A') (A") (A') (A')
                 (A') (A') (A') (A") (A") (A") (A') (A") (A') (A')
                 (A") (A') (A') (A') (A') (A') (A") (A') (A') (A')
                 (A') (A') (A') (A') (A") (A") (A') (A") (A') (A')
                 (A") (A") (A') (A') (A") (A') (A") (A') (A") (A')
                 (A') (A") (A') (A') (A") (A') (A") (A') (A') (A")
                 (A') (A") (A') (A') (A") (A') (A') (A') (A") (A")
                 (A') (A") (A') (A') (A') (A") (A") (A') (A") (A')
                 (A') (A") (A') (A') (A') (A") (A') (A') (A') (A")
                 (A") (A") (A') (A') (A") (A') (A') (A') (A") (A')
                 (A') (A") (A") (A') (A') (A") (A') (A') (A") (A')
                 (A") (A') (A') (A") (A') (A') (A') (A") (A") (A')
                 (A') (A') (A") (A') (A') (A') (A") (A') (A") (A")
                 (A') (A') (A') (A") (A') (A') (A') (A') (A') (A')
                 (A') (A") (A') (A') (A') (A") (A") (A') (A') (A")
                 (A') (A") (A") (A') (A") (A') (A') (A") (A') (A')
                 (A') (A') (A') (A') (A") (A') (A') (A') (A') (A")
                 (A') (A") (A') (A") (A') (A") (A') (A') (A") (A')
                 (A') (A') (A') (A') (A') (A') (A') (A') (A") (A')
                 (A')
 The electronic state of the initial guess is 1-A'.
 Requested convergence on RMS density matrix=1.00D-08 within 128 cycles.
 Requested convergence on MAX density matrix=1.00D-06.
 Requested convergence on             energy=1.00D-06.
 No special actions if energy rises.
 Inv3:  Mode=1 IEnd=    12904428.
 Iteration    1 A*A^-1 deviation from unit magnitude is 3.89D-15 for   2060.
 Iteration    1 A*A^-1 deviation from orthogonality  is 2.84D-15 for   1851   1685.
 Iteration    1 A^-1*A deviation from unit magnitude is 3.89D-15 for   2060.
 Iteration    1 A^-1*A deviation from orthogonality  is 1.66D-15 for   2071   2015.
 Error on total polarization charges =  0.01063
 SCF Done:  E(RM062X) =  -646.744154450     A.U. after   13 cycles
            NFock= 13  Conv=0.73D-08     -V/T= 1.9990

 **********************************************************************

            Population analysis using the SCF Density.

 **********************************************************************

 Orbital symmetries:
       Occupied  (A') (A') (A") (A') (A') (A') (A') (A') (A') (A')
                 (A') (A') (A") (A') (A') (A') (A') (A') (A') (A')
                 (A') (A') (A") (A') (A") (A') (A') (A") (A') (A')
                 (A') (A') (A') (A") (A") (A') (A") (A') (A') (A')
                 (A") (A") (A")
       Virtual   (A') (A') (A') (A") (A') (A') (A") (A") (A') (A')
                 (A") (A') (A') (A") (A') (A') (A") (A') (A") (A')
                 (A') (A') (A') (A") (A') (A") (A') (A") (A') (A')
                 (A") (A') (A') (A') (A') (A") (A') (A') (A') (A')
                 (A') (A") (A") (A') (A') (A") (A') (A') (A") (A')
                 (A') (A') (A") (A') (A') (A') (A") (A') (A') (A')
                 (A') (A') (A') (A") (A') (A') (A') (A') (A') (A")
                 (A') (A') (A") (A') (A") (A') (A") (A') (A') (A')
                 (A') (A') (A") (A") (A') (A") (A") (A') (A') (A")
                 (A') (A') (A") (A') (A') (A') (A') (A') (A') (A')
                 (A') (A') (A') (A') (A') (A") (A') (A') (A") (A")
                 (A') (A') (A") (A') (A") (A") (A') (A") (A") (A")
                 (A') (A') (A') (A') (A") (A') (A") (A') (A") (A')
                 (A') (A') (A") (A') (A") (A") (A') (A') (A') (A')
                 (A') (A") (A") (A') (A") (A") (A') (A') (A") (A')
                 (A') (A") (A') (A') (A") (A') (A') (A") (A') (A')
                 (A") (A") (A') (A') (A") (A') (A') (A') (A') (A')
                 (A") (A") (A") (A') (A') (A") (A') (A') (A") (A")
                 (A') (A') (A') (A') (A') (A") (A') (A') (A') (A")
                 (A') (A') (A') (A') (A") (A") (A') (A") (A") (A")
                 (A') (A') (A') (A") (A') (A') (A') (A') (A') (A")
                 (A') (A') (A') (A') (A') (A") (A") (A") (A') (A')
                 (A') (A") (A") (A') (A') (A") (A') (A") (A') (A')
                 (A') (A') (A') (A') (A") (A') (A') (A') (A') (A")
                 (A') (A") (A') (A") (A') (A") (A') (A') (A") (A')
                 (A') (A') (A') (A') (A') (A') (A') (A') (A") (A')
                 (A')
 The electronic state is 1-A'.
 Alpha  occ. eigenvalues --  -25.26426 -25.23500 -25.23500 -19.64015 -10.61691
 Alpha  occ. eigenvalues --  -10.61653 -10.52676 -10.52673 -10.52322 -10.52310
 Alpha  occ. eigenvalues --  -10.51595  -1.36948  -1.35327  -1.35304  -1.19217
 Alpha  occ. eigenvalues --   -1.03407  -0.89544  -0.88726  -0.74990  -0.74043
 Alpha  occ. eigenvalues --   -0.72698  -0.66824  -0.65327  -0.65049  -0.60524
 Alpha  occ. eigenvalues --   -0.59541  -0.59205  -0.57784  -0.54115  -0.53686
 Alpha  occ. eigenvalues --   -0.52746  -0.52094  -0.52083  -0.52080  -0.52061
 Alpha  occ. eigenvalues --   -0.50724  -0.48182  -0.47621  -0.44660  -0.42269
 Alpha  occ. eigenvalues --   -0.35158  -0.34082  -0.33215
 Alpha virt. eigenvalues --   -0.00520  -0.00511   0.00866   0.01334   0.01451
 Alpha virt. eigenvalues --    0.02233   0.02327   0.03203   0.03550   0.03771
 Alpha virt. eigenvalues --    0.04630   0.05772   0.07166   0.07478   0.07894
 Alpha virt. eigenvalues --    0.08747   0.08873   0.10587   0.11592   0.11792
 Alpha virt. eigenvalues --    0.12722   0.13114   0.13477   0.13915   0.13940
 Alpha virt. eigenvalues --    0.14180   0.14199   0.14815   0.15026   0.15401
 Alpha virt. eigenvalues --    0.16233   0.17304   0.17323   0.18538   0.19976
 Alpha virt. eigenvalues --    0.20362   0.20881   0.20997   0.21500   0.22120
 Alpha virt. eigenvalues --    0.22807   0.24542   0.25972   0.26599   0.27178
 Alpha virt. eigenvalues --    0.27638   0.28485   0.30621   0.30665   0.30871
 Alpha virt. eigenvalues --    0.32656   0.32957   0.33124   0.33576   0.33899
 Alpha virt. eigenvalues --    0.34753   0.35116   0.36100   0.36952   0.38301
 Alpha virt. eigenvalues --    0.39689   0.41599   0.42944   0.43227   0.43465
 Alpha virt. eigenvalues --    0.44099   0.45517   0.45842   0.51426   0.52166
 Alpha virt. eigenvalues --    0.54612   0.54718   0.55951   0.56927   0.58432
 Alpha virt. eigenvalues --    0.58779   0.59254   0.59378   0.61205   0.61965
 Alpha virt. eigenvalues --    0.64122   0.64765   0.65297   0.65441   0.65823
 Alpha virt. eigenvalues --    0.66316   0.68049   0.70256   0.71352   0.74633
 Alpha virt. eigenvalues --    0.75195   0.76056   0.79657   0.81389   0.81613
 Alpha virt. eigenvalues --    0.83539   0.85367   0.85803   0.89326   0.89873
 Alpha virt. eigenvalues --    0.94077   0.96830   0.99862   1.01530   1.02328
 Alpha virt. eigenvalues --    1.02794   1.05701   1.06387   1.07661   1.08292
 Alpha virt. eigenvalues --    1.11397   1.11979   1.15953   1.16700   1.19295
 Alpha virt. eigenvalues --    1.22565   1.22792   1.23723   1.27365   1.32026
 Alpha virt. eigenvalues --    1.32368   1.32781   1.35217   1.35342   1.36113
 Alpha virt. eigenvalues --    1.37036   1.38235   1.44705   1.45063   1.49350
 Alpha virt. eigenvalues --    1.50743   1.52209   1.52722   1.53415   1.54777
 Alpha virt. eigenvalues --    1.58453   1.61156   1.63359   1.64360   1.65278
 Alpha virt. eigenvalues --    1.66223   1.67353   1.68167   1.71222   1.73100
 Alpha virt. eigenvalues --    1.73709   1.76462   1.76679   1.82077   1.82247
 Alpha virt. eigenvalues --    1.84628   1.85623   1.85719   1.90836   1.92390
 Alpha virt. eigenvalues --    1.93839   1.94242   1.97368   1.99154   2.04327
 Alpha virt. eigenvalues --    2.04434   2.05417   2.05756   2.06286   2.11914
 Alpha virt. eigenvalues --    2.15490   2.17220   2.18063   2.18356   2.20186
 Alpha virt. eigenvalues --    2.21727   2.23067   2.36806   2.37782   2.40535
 Alpha virt. eigenvalues --    2.46306   2.48407   2.50637   2.50749   2.54127
 Alpha virt. eigenvalues --    2.55783   2.58264   2.65081   2.67246   2.70722
 Alpha virt. eigenvalues --    2.73607   2.75482   2.77100   2.78262   2.78606
 Alpha virt. eigenvalues --    2.79843   2.81622   2.86447   2.86649   2.87327
 Alpha virt. eigenvalues --    2.89671   2.90726   2.96264   2.98275   2.98494
 Alpha virt. eigenvalues --    3.03750   3.08380   3.11803   3.24439   3.27141
 Alpha virt. eigenvalues --    3.35048   3.39599   3.41686   3.55266   3.60023
 Alpha virt. eigenvalues --    3.61403   3.64573   3.75005   3.76040   3.86493
 Alpha virt. eigenvalues --    3.87411   3.88219   3.88328   3.88418   3.88562
 Alpha virt. eigenvalues --    3.99294   4.00876   4.03654   4.08360   4.13680
 Alpha virt. eigenvalues --    4.14276   4.14878   4.15945   4.17320   4.18156
 Alpha virt. eigenvalues --    4.19182   4.25804   4.26868   4.36782   4.91187
 Alpha virt. eigenvalues --    4.91739   4.94612   4.95428   5.11438   5.24506
 Alpha virt. eigenvalues --    5.82349   6.40474   6.41481   6.43903   6.44557
 Alpha virt. eigenvalues --    6.55584   6.61258   6.83433   6.85679   6.89750
 Alpha virt. eigenvalues --   23.73161  24.17335  24.26793  24.31491  24.54114
 Alpha virt. eigenvalues --   24.57234  24.72763  50.07172  66.90369  66.91258
 Alpha virt. eigenvalues --   66.96438
          Condensed to atoms (all electrons):
               1          2          3          4          5          6
     1  C   15.795348  -1.484668  -3.034305  -0.741535  -3.035392  -1.487805
     2  C   -1.484668  16.030603   2.655886  -1.042289  -1.545324  -8.892221
     3  C   -3.034305   2.655886   7.812602   0.698921  -0.693397  -1.549364
     4  C   -0.741535  -1.042289   0.698921   7.358357   0.701944  -1.033373
     5  C   -3.035392  -1.545324  -0.693397   0.701944   7.812251   2.650906
     6  C   -1.487805  -8.892221  -1.549364  -1.033373   2.650906  16.033842
     7  F    0.678412  -0.302770  -0.069876   0.020910  -0.070114  -0.303693
     8  H   -0.119196   0.580339  -0.076969  -0.028882   0.031164  -0.052231
     9  H   -0.019559  -0.047540   0.456411  -0.111087  -0.002167   0.063642
    10  H    0.044274  -0.029196  -0.074467   0.523430  -0.074516  -0.029023
    11  H   -0.019427   0.063769  -0.002140  -0.111098   0.456477  -0.047881
    12  H   -0.118188  -0.051057   0.031307  -0.029151  -0.077792   0.579090
    13  O    0.069226  -0.021185  -0.001597  -0.001347  -0.001587  -0.021285
    14  C   -0.001932  -0.000952   0.000043   0.000100   0.000017  -0.001190
    15  H   -0.000300   0.000181   0.000036  -0.000055   0.000035   0.000178
    16  H   -0.000300   0.000181   0.000036  -0.000055   0.000035   0.000178
    17  H    0.016836  -0.003700  -0.001486  -0.000756  -0.001455  -0.003650
    18  F    0.120898  -0.032605  -0.021690   0.006699  -0.021682  -0.032692
    19  H    0.016836  -0.003700  -0.001486  -0.000756  -0.001455  -0.003650
    20  F    0.120898  -0.032605  -0.021690   0.006699  -0.021682  -0.032692
               7          8          9         10         11         12
     1  C    0.678412  -0.119196  -0.019559   0.044274  -0.019427  -0.118188
     2  C   -0.302770   0.580339  -0.047540  -0.029196   0.063769  -0.051057
     3  C   -0.069876  -0.076969   0.456411  -0.074467  -0.002140   0.031307
     4  C    0.020910  -0.028882  -0.111087   0.523430  -0.111098  -0.029151
     5  C   -0.070114   0.031164  -0.002167  -0.074516   0.456477  -0.077792
     6  C   -0.303693  -0.052231   0.063642  -0.029023  -0.047881   0.579090
     7  F    9.244458  -0.022910  -0.001249   0.001252  -0.001244  -0.022850
     8  H   -0.022910   0.487851  -0.009818   0.000145   0.002996   0.000558
     9  H   -0.001249  -0.009818   0.467670  -0.013179   0.000819   0.003000
    10  H    0.001252   0.000145  -0.013179   0.476416  -0.013182   0.000146
    11  H   -0.001244   0.002996   0.000819  -0.013182   0.467683  -0.009841
    12  H   -0.022850   0.000558   0.003000   0.000146  -0.009841   0.487906
    13  O   -0.000875   0.002006   0.000058  -0.000009   0.000059   0.002010
    14  C    0.002382  -0.000266   0.000001   0.000002   0.000001  -0.000262
    15  H   -0.000389  -0.000011   0.000004  -0.000001   0.000004  -0.000011
    16  H   -0.000389  -0.000011   0.000004  -0.000001   0.000004  -0.000011
    17  H    0.013984  -0.000653   0.000040  -0.000033   0.000041  -0.000653
    18  F   -0.008689   0.000431  -0.000736   0.000179  -0.000736   0.000438
    19  H    0.013984  -0.000653   0.000040  -0.000033   0.000041  -0.000653
    20  F   -0.008689   0.000431  -0.000736   0.000179  -0.000736   0.000438
              13         14         15         16         17         18
     1  C    0.069226  -0.001932  -0.000300  -0.000300   0.016836   0.120898
     2  C   -0.021185  -0.000952   0.000181   0.000181  -0.003700  -0.032605
     3  C   -0.001597   0.000043   0.000036   0.000036  -0.001486  -0.021690
     4  C   -0.001347   0.000100  -0.000055  -0.000055  -0.000756   0.006699
     5  C   -0.001587   0.000017   0.000035   0.000035  -0.001455  -0.021682
     6  C   -0.021285  -0.001190   0.000178   0.000178  -0.003650  -0.032692
     7  F   -0.000875   0.002382  -0.000389  -0.000389   0.013984  -0.008689
     8  H    0.002006  -0.000266  -0.000011  -0.000011  -0.000653   0.000431
     9  H    0.000058   0.000001   0.000004   0.000004   0.000040  -0.000736
    10  H   -0.000009   0.000002  -0.000001  -0.000001  -0.000033   0.000179
    11  H    0.000059   0.000001   0.000004   0.000004   0.000041  -0.000736
    12  H    0.002010  -0.000262  -0.000011  -0.000011  -0.000653   0.000438
    13  O    8.206043   0.270781  -0.089114  -0.089114   0.002891  -0.001991
    14  C    0.270781   4.802171   0.418253   0.418253   0.001515  -0.000582
    15  H   -0.089114   0.418253   0.658160  -0.117364  -0.001108   0.000487
    16  H   -0.089114   0.418253  -0.117364   0.658160   0.000404  -0.000237
    17  H    0.002891   0.001515  -0.001108   0.000404   0.368098   0.327557
    18  F   -0.001991  -0.000582   0.000487  -0.000237   0.327557   8.939525
    19  H    0.002891   0.001515   0.000404  -0.001108  -0.000764   0.000294
    20  F   -0.001991  -0.000582  -0.000237   0.000487   0.000294  -0.000025
              19         20
     1  C    0.016836   0.120898
     2  C   -0.003700  -0.032605
     3  C   -0.001486  -0.021690
     4  C   -0.000756   0.006699
     5  C   -0.001455  -0.021682
     6  C   -0.003650  -0.032692
     7  F    0.013984  -0.008689
     8  H   -0.000653   0.000431
     9  H    0.000040  -0.000736
    10  H   -0.000033   0.000179
    11  H    0.000041  -0.000736
    12  H   -0.000653   0.000438
    13  O    0.002891  -0.001991
    14  C    0.001515  -0.000582
    15  H    0.000404  -0.000237
    16  H   -0.001108   0.000487
    17  H   -0.000764   0.000294
    18  F    0.000294  -0.000025
    19  H    0.368098   0.327557
    20  F    0.327557   8.939525
 Mulliken charges:
               1
     1  C   -0.800122
     2  C    0.158854
     3  C   -0.106776
     4  C   -0.216676
     5  C   -0.106267
     6  C    0.162912
     7  F   -0.161646
     8  H    0.205679
     9  H    0.214381
    10  H    0.187618
    11  H    0.214392
    12  H    0.205576
    13  O   -0.325867
    14  C    0.090732
    15  H    0.130849
    16  H    0.130849
    17  H    0.282599
    18  F   -0.274843
    19  H    0.282599
    20  F   -0.274843
 Sum of Mulliken charges =  -0.00000
 Mulliken charges with hydrogens summed into heavy atoms:
               1
     1  C   -0.800122
     2  C    0.364534
     3  C    0.107605
     4  C   -0.029058
     5  C    0.108126
     6  C    0.368488
     7  F   -0.161646
    13  O   -0.325867
    14  C    0.352430
    18  F    0.007755
    20  F    0.007755
 Electronic spatial extent (au):  <R**2>=           2833.3720
 Charge=              0.0000 electrons
 Dipole moment (field-independent basis, Debye):
    X=              0.0085    Y=              0.9728    Z=             -0.0000  Tot=              0.9728
 Quadrupole moment (field-independent basis, Debye-Ang):
   XX=            -56.4106   YY=            -28.4635   ZZ=            -86.3969
   XY=              0.0524   XZ=             -0.0000   YZ=             -0.0000
 Traceless Quadrupole moment (field-independent basis, Debye-Ang):
   XX=              0.6797   YY=             28.6268   ZZ=            -29.3065
   XY=              0.0524   XZ=             -0.0000   YZ=             -0.0000
 Octapole moment (field-independent basis, Debye-Ang**2):
  XXX=             -0.0209  YYY=            154.7355  ZZZ=             -0.0000  XYY=              0.2541
  XXY=              1.1008  XXZ=              0.0000  XZZ=              0.0337  YZZ=              5.5350
  YYZ=             -0.0000  XYZ=              0.0000
 Hexadecapole moment (field-independent basis, Debye-Ang**3):
 XXXX=           -242.6214 YYYY=          -1438.3123 ZZZZ=          -1019.9711 XXXY=             -0.9976
 XXXZ=             -0.0000 YYYX=              0.3449 YYYZ=             -0.0000 ZZZX=             -0.0000
 ZZZY=             -0.0000 XXYY=           -416.6944 XXZZ=           -173.7223 YYZZ=           -543.7280
 XXYZ=              0.0000 YYXZ=              0.0000 ZZXY=             -0.3166
 N-N= 5.839088757139D+02 E-N=-2.694699502568D+03  KE= 6.473925506961D+02
 Symmetry A'   KE= 5.273243216598D+02
 Symmetry A"   KE= 1.200682290363D+02
 D1PCM: PCM CHGder 1st derivatives, ID1Alg=3 FixD1E=F DoIter=F DoCFld=F I1PDM=0.
 Calling FoFJK, ICntrl=      2127 FMM=F ISym2X=1 I1Cent= 0 IOpClX= 0 NMat=1 NMatS=1 NMatT=0.
 ***** Axes restored to original set *****
 -------------------------------------------------------------------
 Center     Atomic                   Forces (Hartrees/Bohr)
 Number     Number              X              Y              Z
 -------------------------------------------------------------------
      1        6          -0.082013018   -0.000000000   -0.047347958
      2        6          -0.054559608   -0.000000000    0.014655709
      3        6           0.002781859   -0.000000000    0.037445067
      4        6           0.039154980   -0.000000000    0.022606005
      5        6           0.033819197    0.000000000   -0.016313082
      6        6          -0.014588718    0.000000000   -0.054578554
      7        9           0.019022910   -0.000000000    0.010985550
      8        1          -0.065553707   -0.000000000    0.036140070
      9        1          -0.001773314   -0.000000000    0.073729959
     10        1           0.064247020    0.000000000    0.037093033
     11        1           0.062965349   -0.000000000   -0.038400734
     12        1          -0.001478666    0.000000000   -0.074841202
     13        8           0.017498647    0.000000000    0.010099936
     14        6           0.059712062    0.000000000    0.034801188
     15        1          -0.039035101    0.071298677   -0.022701347
     16        1          -0.039035101   -0.071298677   -0.022701347
     17        1          -0.005214401   -0.031603892   -0.003010392
     18        9           0.004632005    0.028374107    0.002674246
     19        1          -0.005214401    0.031603892   -0.003010392
     20        9           0.004632005   -0.028374107    0.002674246
 -------------------------------------------------------------------
 Cartesian Forces:  Max     0.082013018 RMS     0.034509418
 -----------------------------------------------------------------------------------------------
                       Internal Coordinate Forces (Hartree/Bohr or radian)
  Cent   Atom   N1       Length/X         N2         Alpha/Y        N3         Beta/Z          J
 -----------------------------------------------------------------------------------------------
      1  C 
      2  C        1   0.036551(     1)
      3  C        2   0.152710(     2)      1   0.158318(    20)
      4  C        3   0.221669(     3)      2   0.412527(    21)      1   0.000000(    38)     0
      5  C        4   0.185119(     4)      3   0.450549(    22)      2   0.000000(    39)     0
      6  C        5   0.079610(     5)      4   0.253653(    23)      3   0.000000(    40)     0
      7  F        1  -0.019627(     6)      2   0.000022(    24)      3   0.000000(    41)     0
      8  H        2   0.074841(     7)      3   0.002794(    25)      4  -0.000000(    42)     0
      9  H        3   0.073730(     8)      4   0.003351(    26)      5  -0.000000(    43)     0
     10  H        4   0.074186(     9)      5  -0.000000(    27)      6   0.000000(    44)     0
     11  H        5   0.073730(    10)      6  -0.003351(    28)      1  -0.000000(    45)     0
     12  H        6   0.074841(    11)      1  -0.002794(    29)      2   0.000000(    46)     0
     13  O        7   0.000995(    12)      1  -0.000016(    30)      3  -0.000000(    47)     0
     14  C       13   0.021199(    13)      1   0.000105(    31)      2  -0.000000(    48)     0
     15  H       14   0.084325(    14)      1   0.006533(    32)      2   0.000118(    49)     0
     16  H       14   0.084325(    15)      1   0.006533(    33)      2  -0.000118(    50)     0
     17  H        7  -0.003064(    16)      1   0.004737(    34)      2  -0.000000(    51)     0
     18  F       17   0.028872(    17)      7  -0.000579(    35)      1   0.000000(    52)     0
     19  H        7  -0.003064(    18)      1   0.004737(    36)      2   0.000000(    53)     0
     20  F       19   0.028872(    19)      7  -0.000579(    37)      1  -0.000000(    54)     0
 -----------------------------------------------------------------------------------------------
 Internal  Forces:  Max     0.450548898 RMS     0.107278389

 GradGradGradGradGradGradGradGradGradGradGradGradGradGradGradGradGradGrad
 Berny optimization.
 Search for a local minimum.
 Step number   1 out of a maximum of   29
 All quantities printed in internal units (Hartrees-Bohrs-Radians)
 Second derivative matrix not updated -- first step.
 The second derivative matrix:
                          d1        d2        d3        d4        d5
           d1           0.95300
           d2          -0.05489   0.95300
           d3          -0.33597   0.33597   1.34386
           d4          -0.28107   0.05489   0.33597   0.95300
           d5           0.05489  -0.28107  -0.33597  -0.05489   0.95300
           d6           0.00000   0.00000  -0.00000  -0.00000  -0.00000
           d7           0.00000   0.00000  -0.00000  -0.00000  -0.00000
           d8          -0.00000  -0.00000   0.00000   0.00000   0.00000
           d9           0.00000   0.00000   0.00000  -0.00000  -0.00000
           d10         -0.00000  -0.00000  -0.00000   0.00000   0.00000
           d11          0.00000  -0.00000  -0.00000  -0.00000  -0.00000
           d12          0.00000   0.00000   0.00000  -0.00000  -0.00000
           d13          0.00000   0.00000   0.00000  -0.00000  -0.00000
           d14         -0.00000  -0.00000   0.00000   0.00000   0.00000
           d15          0.00000   0.00000   0.00000  -0.00000  -0.00000
           d16         -0.00000  -0.00000  -0.00000   0.00000   0.00000
           d17         -0.00000  -0.00000   0.00000   0.00000   0.00000
           d18         -0.00000  -0.00000  -0.00000   0.00000   0.00000
           d19         -0.00000  -0.00000   0.00000   0.00000   0.00000
                          d6        d7        d8        d9        d10
           d6           0.45621
           d7           0.00000   0.47688
           d8          -0.00000   0.00000   0.47688
           d9           0.00000  -0.00000   0.00000   0.47688
           d10          0.00000  -0.00000  -0.00000   0.00000   0.47688
           d11          0.00000  -0.00000   0.00000   0.00000   0.00000
           d12         -0.00000  -0.00000  -0.00000   0.00000   0.00000
           d13         -0.00000  -0.00000  -0.00000   0.00000   0.00000
           d14          0.00000   0.00000   0.00000  -0.00000  -0.00000
           d15         -0.00000  -0.00000  -0.00000   0.00000   0.00000
           d16         -0.00000   0.00000   0.00000  -0.00000  -0.00000
           d17          0.00000   0.00000   0.00000  -0.00000  -0.00000
           d18          0.00000  -0.00000   0.00000  -0.00000  -0.00000
           d19         -0.00000  -0.00000   0.00000  -0.00000  -0.00000
                          d11       d12       d13       d14       d15
           d11          0.47688
           d12          0.00000   0.02330
           d13          0.00000  -0.00000   1.04823
           d14         -0.00000   0.00000   0.00000   0.47688
           d15          0.00000   0.00000  -0.00000   0.00000   0.47688
           d16         -0.00000   0.00000   0.00000   0.00000   0.00000
           d17         -0.00000  -0.00000  -0.00000   0.00000  -0.00000
           d18          0.00000  -0.00000   0.00000   0.00000  -0.00000
           d19          0.00000   0.00000   0.00000  -0.00000   0.00000
                          d16       d17       d18       d19
           d16          0.02721
           d17          0.00000   0.70673
           d18          0.00000   0.00000   0.02721
           d19          0.00000  -0.00000  -0.00000   0.70673
 ITU=  0
     Eigenvalues ---    0.02330   0.02721   0.02721   0.45621   0.47688
     Eigenvalues ---    0.47688   0.47688   0.47688   0.47688   0.47688
     Eigenvalues ---    0.47688   0.67193   0.67193   0.67193   0.70673
     Eigenvalues ---    0.70673   1.04823   1.12429   2.01579
 RFO step:  Lambda=-1.63765403D-01 EMin= 2.33007068D-02
 Linear search not attempted -- first point.
 Maximum step size (   0.300) exceeded in Quadratic search.
    -- Step size scaled by   0.669
 Variable       Old X    -DE/DX   Delta X   Delta X   Delta X     New X
                                 (Linear)    (Quad)   (Total)
    d1        2.45664   0.03655   0.00000   0.07561   0.07561   2.53225
    d2        2.45664   0.15271   0.00000   0.08654   0.08654   2.54319
    d3        2.45664   0.22167   0.00000   0.09541   0.09541   2.55206
    d4        2.45664   0.18512   0.00000   0.10188   0.10188   2.55852
    d5        2.45664   0.07961   0.00000   0.09948   0.09948   2.55612
    d6        2.64562  -0.01963   0.00000  -0.02118  -0.02118   2.62443
    d7        1.88973   0.07484   0.00000   0.07817   0.07817   1.96790
    d8        1.88973   0.07373   0.00000   0.07701   0.07701   1.96674
    d9        1.88973   0.07419   0.00000   0.07749   0.07749   1.96721
   d10        1.88973   0.07373   0.00000   0.07701   0.07701   1.96674
   d11        1.88973   0.07484   0.00000   0.07817   0.07817   1.96790
   d12        5.29123   0.00100   0.00000   0.00356   0.00356   5.29479
   d13        2.26767   0.02120   0.00000   0.01170   0.01170   2.27938
   d14        1.88973   0.08432   0.00000   0.08808   0.08808   1.97780
   d15        1.88973   0.08432   0.00000   0.08808   0.08808   1.97780
   d16        4.34637  -0.00306   0.00000  -0.01074  -0.01074   4.33563
   d17        1.70075   0.02887   0.00000   0.02219   0.02219   1.72295
   d18        4.34637  -0.00306   0.00000  -0.01074  -0.01074   4.33563
   d19        1.70075   0.02887   0.00000   0.02219   0.02219   1.72295
         Item               Value     Threshold  Converged?
 Maximum Force            0.221669     0.000450     NO 
 RMS     Force            0.091399     0.000300     NO 
 Maximum Displacement     0.101881     0.001800     NO 
 RMS     Displacement     0.068825     0.001200     NO 
 Predicted change in Energy=-8.028875D-02
 GradGradGradGradGradGradGradGradGradGradGradGradGradGradGradGradGradGrad

 ---------------------------------------------------------------------------------------------------
                            Z-MATRIX (ANGSTROMS AND DEGREES)
   CD    Cent   Atom    N1       Length/X        N2       Alpha/Y        N3        Beta/Z          J
 ---------------------------------------------------------------------------------------------------
      1      1  C 
      2      2  C        1   1.340011(     1)
      3      3  C        2   1.345796(     2)      1  120.000(    20)
      4      4  C        3   1.350491(     3)      2  120.000(    21)      1    0.000(    38)      0
      5      5  C        4   1.353913(     4)      3  120.000(    22)      2    0.000(    39)      0
      6      6  C        5   1.352641(     5)      4  120.000(    23)      3    0.000(    40)      0
      7      7  F        1   1.388790(     6)      2  120.000(    24)      3  180.000(    41)      0
      8      8  H        2   1.041366(     7)      3  120.000(    25)      4  180.000(    42)      0
      9      9  H        3   1.040752(     8)      4  120.000(    26)      5  180.000(    43)      0
     10     10  H        4   1.041004(     9)      5  120.000(    27)      6  180.000(    44)      0
     11     11  H        5   1.040752(    10)      6  120.000(    28)      1  180.000(    45)      0
     12     12  H        6   1.041366(    11)      1  120.000(    29)      2  180.000(    46)      0
     13     13  O        7   2.801884(    12)      1  179.900(    30)      3  180.000(    47)      0
     14     14  C       13   1.206194(    13)      1  179.900(    31)      2  180.000(    48)      0
     15     15  H       14   1.046607(    14)      1  120.000(    32)      2   90.000(    49)      0
     16     16  H       14   1.046607(    15)      1  120.000(    33)      2  -90.000(    50)      0
     17     17  H        7   2.294319(    16)      1  100.000(    34)      2   90.000(    51)      0
     18     18  F       17   0.911744(    17)      7  160.000(    35)      1    0.000(    52)      0
     19     19  H        7   2.294319(    18)      1  100.000(    36)      2  -90.000(    53)      0
     20     20  F       19   0.911744(    19)      7  160.000(    37)      1    0.000(    54)      0
 ---------------------------------------------------------------------------------------------------
                         Z-Matrix orientation:                         
 ---------------------------------------------------------------------
 Center     Atomic      Atomic             Coordinates (Angstroms)
 Number     Number       Type             X           Y           Z
 ---------------------------------------------------------------------
      1          6           0        0.000000    0.000000    0.000000
      2          6           0        0.000000    0.000000    1.340011
      3          6           0        1.165494    0.000000    2.012909
      4          6           0        2.335053    0.000000    1.337664
      5          6           0        2.335053    0.000000   -0.016249
      6          6           0        1.163631    0.000000   -0.692569
      7          9           0       -1.202727   -0.000000   -0.694395
      8          1           0       -0.901849   -0.000000    1.860694
      9          1           0        1.165494   -0.000000    3.053661
     10          1           0        3.236588   -0.000000    1.858166
     11          1           0        3.236370   -0.000000   -0.536625
     12          1           0        1.149815   -0.000000   -1.733843
     13          8           0       -3.626781   -0.000000   -2.099570
     14          6           0       -4.669615   -0.000000   -2.705706
     15          1           0       -5.122401    0.906389   -2.968063
     16          1           0       -5.122401   -0.906389   -2.968063
     17          1           0       -1.547756    2.259463   -0.893597
     18          9           0       -1.410644    3.157356   -0.814436
     19          1           0       -1.547756   -2.259463   -0.893597
     20          9           0       -1.410644   -3.157356   -0.814436
 ---------------------------------------------------------------------
                    Distance matrix (angstroms):
                    1          2          3          4          5
     1  C    0.000000
     2  C    1.340011   0.000000
     3  C    2.325979   1.345796   0.000000
     4  C    2.691062   2.335054   1.350491   0.000000
     5  C    2.335109   2.700354   2.342083   1.353913   0.000000
     6  C    1.354138   2.342098   2.705479   2.343944   1.352641
     7  F    1.388790   2.363337   3.596939   4.079847   3.602190
     8  H    2.067732   1.041366   2.072939   3.278886   3.741718
     9  H    3.268520   2.072431   1.040752   2.076659   3.285151
    10  H    3.732062   3.277802   2.076868   1.041004   2.079951
    11  H    3.280558   3.741103   3.284609   2.079743   1.040752
    12  H    2.080453   3.281868   3.746786   3.292256   2.086845
    13  O    4.190672   4.998426   6.314933   6.881718   6.315353
    14  C    5.396864   6.178441   7.504253   8.087905   7.503236
    15  H    5.989151   6.754261   8.072747   8.658778   8.071454
    16  H    5.989151   6.754261   8.072747   8.658778   8.071454
    17  H    2.880840   3.534081   4.573257   5.015965   4.577239
    18  F    3.552762   4.074366   4.959764   5.350764   4.963491
    19  H    2.880840   3.534081   4.573257   5.015965   4.577239
    20  F    3.552762   4.074366   4.959764   5.350764   4.963491
                    6          7          8          9         10
     6  C    0.000000
     7  F    2.366360   0.000000
     8  H    3.284108   2.572743   0.000000
     9  H    3.746231   4.433553   2.386855   0.000000
    10  H    3.286853   5.120849   4.138438   2.391368   0.000000
    11  H    2.078597   4.441900   4.782468   4.144717   2.394791
    12  H    1.041366   2.571946   4.138843   4.787530   4.154173
    13  O    4.992765   2.801884   4.807176   7.037164   7.922721
    14  C    6.170857   4.008077   5.920141   8.198707   9.128909
    15  H    6.746378   4.621141   6.476997   8.753303   9.694675
    16  H    6.746378   4.621141   6.476997   8.753303   9.694675
    17  H    3.535139   2.294319   3.620565   5.296012   5.963835
    18  F    4.075616   3.166471   4.169423   5.618501   6.221613
    19  H    3.535139   2.294319   3.620565   5.296012   5.963835
    20  F    4.075616   3.166471   4.169423   5.618501   6.221613
                   11         12         13         14         15
    11  H    0.000000
    12  H    2.405628   0.000000
    13  O    7.038867   4.790576   0.000000
    14  C    8.198141   5.900023   1.206194   0.000000
    15  H    8.752285   6.456433   1.952614   1.046607   0.000000
    16  H    8.752285   6.456433   1.952614   1.046607   1.812777
    17  H    5.302873   3.617744   3.298771   4.258511   4.348828
    18  F    5.625017   4.167752   4.065923   4.915963   4.845834
    19  H    5.302873   3.617744   3.298771   4.258511   5.206161
    20  F    5.625017   4.167752   4.065923   4.915963   5.910099
                   16         17         18         19         20
    16  H    0.000000
    17  H    5.206161   0.000000
    18  F    5.910099   0.911744   0.000000
    19  H    4.348828   4.518926   5.419132   0.000000
    20  F    4.845834   5.419132   6.314712   0.911744   0.000000
 Stoichiometry    C7H9F3O
 Framework group  CS[SG(C7H5FO),X(H4F2)]
 Deg. of freedom    34
 Full point group                 CS      NOp   2
 Largest Abelian subgroup         CS      NOp   2
 Largest concise Abelian subgroup CS      NOp   2
                         Standard orientation:                         
 ---------------------------------------------------------------------
 Center     Atomic      Atomic             Coordinates (Angstroms)
 Number     Number       Type             X           Y           Z
 ---------------------------------------------------------------------
      1          6           0       -0.005350   -0.764474    0.000000
      2          6           0       -1.165834   -1.434480    0.000000
      3          6           0       -1.165834   -2.780276    0.000000
      4          6           0        0.003725   -3.455521    0.000000
      5          6           0        1.176248   -2.778565    0.000000
      6          6           0        1.176248   -1.425924    0.000000
      7          9           0       -0.005350    0.624316   -0.000000
      8          1           0       -2.067683   -0.913797    0.000000
      9          1           0       -2.067151   -3.300652    0.000000
     10          1           0        0.003725   -4.496525    0.000000
     11          1           0        2.077565   -3.298941    0.000000
     12          1           0        2.071109   -0.893321    0.000000
     13          8           0       -0.000460    3.426195   -0.000000
     14          6           0        0.003053    4.632384   -0.000000
     15          1           0        0.003868    5.155687    0.906389
     16          1           0        0.003868    5.155687   -0.906389
     17          1           0       -0.005350    1.022720    2.259463
     18          9           0       -0.005350    0.864397    3.157356
     19          1           0       -0.005350    1.022720   -2.259463
     20          9           0       -0.005350    0.864397   -3.157356
 ---------------------------------------------------------------------
 Rotational constants (GHZ):           1.0665417           0.4819629           0.3726430
 Standard basis: 6-311++G(d,p) (5D, 7F)
 There are   220 symmetry adapted cartesian basis functions of A'  symmetry.
 There are    96 symmetry adapted cartesian basis functions of A"  symmetry.
 There are   210 symmetry adapted basis functions of A'  symmetry.
 There are    95 symmetry adapted basis functions of A"  symmetry.
   305 basis functions,   477 primitive gaussians,   316 cartesian basis functions
    43 alpha electrons       43 beta electrons
       nuclear repulsion energy       573.6453821122 Hartrees.
 NAtoms=   20 NActive=   20 NUniq=   17 SFac= 1.38D+00 NAtFMM=   60 NAOKFM=F Big=F
 Integral buffers will be    131072 words long.
 Raffenetti 2 integral format.
 Two-electron integral symmetry is turned on.
 ------------------------------------------------------------------------------
 Polarizable Continuum Model (PCM)
 =================================
 Model                : PCM.
 Atomic radii         : UFF (Universal Force Field).
 Polarization charges : Total charges.
 Charge compensation  : None.
 Solution method      : On-the-fly selection.
 Cavity type          : Scaled VdW (van der Waals Surface) (Alpha=1.100).
 Cavity algorithm     : GePol (No added spheres)
                        Default sphere list used, NSphG=   20.
                        Lebedev-Laikov grids with approx.  5.0 points / Ang**2.
                        Smoothing algorithm: York/Karplus (Gamma=1.0000).
                        Polarization charges: spherical gaussians, with
                                              point-specific exponents (IZeta= 3).
                        Self-potential: point-specific (ISelfS= 7).
                        Self-field    : sphere-specific E.n sum rule (ISelfD= 2).
 1st derivatives      : Analytical E(r).r(x)/FMM algorithm (CHGder, D1EAlg=3).
                        Cavity 1st derivative terms included.
 Solvent              : Water, Eps=  78.355300 Eps(inf)=   1.777849
 ------------------------------------------------------------------------------
 Spheres list:
 ISph  on   Nord     Re0    Alpha      Xe            Ye            Ze
    1   C      1    1.9255  1.100     -0.005350     -0.764474      0.000000
    2   C      2    1.9255  1.100     -1.165834     -1.434480      0.000000
    3   C      3    1.9255  1.100     -1.165834     -2.780276      0.000000
    4   C      4    1.9255  1.100      0.003725     -3.455521      0.000000
    5   C      5    1.9255  1.100      1.176248     -2.778565      0.000000
    6   C      6    1.9255  1.100      1.176248     -1.425924      0.000000
    7   F      7    1.6820  1.100     -0.005350      0.624316     -0.000000
    8   H      8    1.4430  1.100     -2.067683     -0.913797      0.000000
    9   H      9    1.4430  1.100     -2.067151     -3.300652      0.000000
   10   H     10    1.4430  1.100      0.003725     -4.496525      0.000000
   11   H     11    1.4430  1.100      2.077565     -3.298941      0.000000
   12   H     12    1.4430  1.100      2.071109     -0.893321      0.000000
   13   O     13    1.7500  1.100     -0.000460      3.426195     -0.000000
   14   C     14    1.9255  1.100      0.003053      4.632384     -0.000000
   15   H     15    1.4430  1.100      0.003868      5.155687      0.906389
   16   H     16    1.4430  1.100      0.003868      5.155687     -0.906389
   17   H     17    1.4430  1.100     -0.005350      1.022720      2.259463
   18   F     18    1.6820  1.100     -0.005350      0.864397      3.157356
   19   H     19    1.4430  1.100     -0.005350      1.022720     -2.259463
   20   F     20    1.6820  1.100     -0.005350      0.864397     -3.157356
 ------------------------------------------------------------------------------
 One-electron integrals computed using PRISM.
 NBasis=   305 RedAO= T EigKep=  5.02D-06  NBF=   210    95
 NBsUse=   304 1.00D-06 EigRej=  6.82D-07 NBFU=   209    95
 Initial guess from the checkpoint file:  "model_H2b.chk"
 B after Tr=     0.000000    0.000000   -0.000000
         Rot=    1.000000   -0.000000   -0.000000   -0.000828 Ang=  -0.09 deg.
 Initial guess orbital symmetries:
       Occupied  (A') (A') (A") (A') (A') (A') (A') (A') (A') (A')
                 (A') (A') (A") (A') (A') (A') (A') (A') (A') (A')
                 (A') (A') (A") (A') (A") (A') (A') (A") (A') (A')
                 (A') (A') (A') (A") (A") (A') (A") (A') (A') (A')
                 (A") (A") (A")
       Virtual   (A') (A') (A') (A") (A') (A') (A") (A") (A') (A')
                 (A") (A') (A') (A") (A') (A') (A") (A') (A") (A')
                 (A') (A') (A') (A") (A') (A") (A') (A") (A') (A')
                 (A") (A') (A') (A') (A') (A") (A') (A') (A') (A')
                 (A') (A") (A") (A') (A') (A") (A') (A') (A") (A')
                 (A') (A') (A") (A') (A') (A') (A") (A') (A') (A')
                 (A') (A') (A') (A") (A') (A') (A') (A') (A') (A")
                 (A') (A') (A") (A') (A") (A') (A") (A') (A') (A')
                 (A') (A') (A") (A") (A') (A") (A") (A') (A') (A")
                 (A') (A') (A") (A') (A') (A') (A') (A') (A') (A')
                 (A') (A') (A') (A') (A') (A") (A') (A') (A") (A")
                 (A') (A') (A") (A') (A") (A") (A') (A") (A") (A")
                 (A') (A') (A') (A') (A") (A') (A") (A') (A") (A')
                 (A') (A') (A") (A') (A") (A") (A') (A') (A') (A')
                 (A') (A") (A") (A') (A") (A") (A') (A') (A") (A')
                 (A') (A") (A') (A') (A") (A') (A') (A") (A') (A')
                 (A") (A") (A') (A') (A") (A') (A') (A') (A') (A')
                 (A") (A") (A") (A') (A') (A") (A') (A') (A") (A")
                 (A') (A') (A') (A') (A') (A") (A') (A') (A') (A")
                 (A') (A') (A') (A') (A") (A") (A') (A") (A") (A")
                 (A') (A') (A') (A") (A') (A') (A') (A') (A') (A")
                 (A') (A') (A') (A') (A') (A") (A") (A") (A') (A')
                 (A') (A") (A") (A') (A') (A") (A') (A") (A') (A')
                 (A') (A') (A') (A') (A") (A') (A') (A') (A') (A")
                 (A') (A") (A') (A") (A') (A") (A') (A') (A") (A')
                 (A') (A') (A') (A') (A') (A') (A') (A') (A") (A')
                 (A')
 ExpMin= 3.60D-02 ExpMax= 1.14D+04 ExpMxC= 1.72D+03 IAcc=3 IRadAn=         5 AccDes= 0.00D+00
 Harris functional with IExCor= 1009 and IRadAn=       5 diagonalized for initial guess.
 HarFok:  IExCor= 1009 AccDes= 0.00D+00 IRadAn=         5 IDoV= 1 UseB2=F ITyADJ=14
 ICtDFT=  3500011 ScaDFX=  1.000000  1.000000  1.000000  1.000000
 FoFCou: FMM=F IPFlag=           0 FMFlag=      100000 FMFlg1=           0
         NFxFlg=           0 DoJE=T BraDBF=F KetDBF=T FulRan=T
         wScrn=  0.000000 ICntrl=       500 IOpCl=  0 I1Cent=   200000004 NGrid=           0
         NMat0=    1 NMatS0=      1 NMatT0=    0 NMatD0=    1 NMtDS0=    0 NMtDT0=    0
 Petite list used in FoFCou.
 Requested convergence on RMS density matrix=1.00D-08 within 128 cycles.
 Requested convergence on MAX density matrix=1.00D-06.
 Requested convergence on             energy=1.00D-06.
 No special actions if energy rises.
 Inv3:  Mode=1 IEnd=    13432368.
 Iteration    1 A*A^-1 deviation from unit magnitude is 4.22D-15 for   2096.
 Iteration    1 A*A^-1 deviation from orthogonality  is 2.77D-15 for   2104   1622.
 Iteration    1 A^-1*A deviation from unit magnitude is 4.44D-15 for   2096.
 Iteration    1 A^-1*A deviation from orthogonality  is 1.82D-15 for   1785    126.
 Error on total polarization charges =  0.01130
 SCF Done:  E(RM062X) =  -646.820465191     A.U. after   13 cycles
            NFock= 13  Conv=0.37D-08     -V/T= 2.0014
 D1PCM: PCM CHGder 1st derivatives, ID1Alg=3 FixD1E=F DoIter=F DoCFld=F I1PDM=0.
 Calling FoFJK, ICntrl=      2127 FMM=F ISym2X=1 I1Cent= 0 IOpClX= 0 NMat=1 NMatS=1 NMatT=0.
 ***** Axes restored to original set *****
 -------------------------------------------------------------------
 Center     Atomic                   Forces (Hartrees/Bohr)
 Number     Number              X              Y              Z
 -------------------------------------------------------------------
      1        6          -0.024172240    0.000000000   -0.029113950
      2        6          -0.029941187    0.000000000    0.009156665
      3        6           0.008318880   -0.000000000    0.010230021
      4        6           0.012217992    0.000000000    0.004557145
      5        6           0.005744036   -0.000000000   -0.001240742
      6        6          -0.010704913   -0.000000000   -0.016711797
      7        9           0.016145684   -0.000000000    0.010221150
      8        1          -0.030052658    0.000000000    0.015503103
      9        1          -0.001393289   -0.000000000    0.033248174
     10        1           0.028983213   -0.000000000    0.016542716
     11        1           0.028095987    0.000000000   -0.017887464
     12        1          -0.001316353    0.000000000   -0.033384716
     13        8           0.003350134    0.000000000    0.001877547
     14        6           0.035842806    0.000000000    0.020983367
     15        1          -0.019952140    0.031938800   -0.011638812
     16        1          -0.019952140   -0.031938800   -0.011638812
     17        1          -0.002924849   -0.016248674   -0.001689341
     18        9           0.002317943    0.013166858    0.001337543
     19        1          -0.002924849    0.016248674   -0.001689341
     20        9           0.002317943   -0.013166858    0.001337543
 -------------------------------------------------------------------
 Cartesian Forces:  Max     0.035842806 RMS     0.015757987
 -----------------------------------------------------------------------------------------------
                       Internal Coordinate Forces (Hartree/Bohr or radian)
  Cent   Atom   N1       Length/X         N2         Alpha/Y        N3         Beta/Z          J
 -----------------------------------------------------------------------------------------------
      1  C 
      2  C        1   0.019436(     1)
      3  C        2   0.057665(     2)      1   0.026371(    20)
      4  C        3   0.078630(     3)      2   0.123232(    21)      1  -0.000000(    38)     0
      5  C        4   0.069802(     4)      3   0.148154(    22)      2  -0.000000(    39)     0
      6  C        5   0.036045(     5)      4   0.093534(    23)      3   0.000000(    40)     0
      7  F        1  -0.016866(     6)      2  -0.002000(    24)      3  -0.000000(    41)     0
      8  H        2   0.033778(     7)      3   0.003149(    25)      4   0.000000(    42)     0
      9  H        3   0.033248(     8)      4   0.002740(    26)      5  -0.000000(    43)     0
     10  H        4   0.033372(     9)      5  -0.000325(    27)      6  -0.000000(    44)     0
     11  H        5   0.033276(    10)      6  -0.002838(    28)      1   0.000000(    45)     0
     12  H        6   0.033399(    11)      1  -0.001719(    29)      2   0.000000(    46)     0
     13  O        7   0.000824(    12)      1  -0.000022(    30)      3  -0.000000(    47)     0
     14  C       13   0.004664(    13)      1   0.000101(    31)      2  -0.000000(    48)     0
     15  H       14   0.039209(    14)      1   0.007980(    32)      2   0.000116(    49)     0
     16  H       14   0.039209(    15)      1   0.007980(    33)      2  -0.000116(    50)     0
     17  H        7  -0.002913(    16)      1   0.004714(    34)      2   0.000006(    51)     0
     18  F       17   0.013432(    17)      7  -0.000602(    35)      1   0.000000(    52)     0
     19  H        7  -0.002913(    18)      1   0.004714(    36)      2  -0.000006(    53)     0
     20  F       19   0.013432(    19)      7  -0.000602(    37)      1  -0.000000(    54)     0
 -----------------------------------------------------------------------------------------------
 Internal  Forces:  Max     0.148153595 RMS     0.036561532

 GradGradGradGradGradGradGradGradGradGradGradGradGradGradGradGradGradGrad
 Berny optimization.
 Search for a local minimum.
 Step number   2 out of a maximum of   29
 All quantities printed in internal units (Hartrees-Bohrs-Radians)
 Update second derivatives using D2CorN and points    1    2
 DE= -7.63D-02 DEPred=-8.03D-02 R= 9.50D-01
 TightC=F SS=  1.41D+00  RLast= 3.00D-01 DXNew= 5.0454D-01 9.0000D-01
 Trust test= 9.50D-01 RLast= 3.00D-01 DXMaxT set to 5.05D-01
 The second derivative matrix:
                          d1        d2        d3        d4        d5
           d1           0.95724
           d2          -0.04952   0.95977
           d3          -0.32895   0.34466   1.35482
           d4          -0.27480   0.06278   0.34613   0.96221
           d5           0.06045  -0.27402  -0.32676  -0.04667   0.96028
           d6           0.00231   0.00249   0.00244   0.00295   0.00304
           d7           0.00378   0.00487   0.00650   0.00567   0.00495
           d8           0.00373   0.00482   0.00641   0.00561   0.00489
           d9           0.00379   0.00488   0.00650   0.00569   0.00497
           d10          0.00372   0.00480   0.00640   0.00559   0.00488
           d11          0.00394   0.00506   0.00670   0.00589   0.00516
           d12          0.00014   0.00018   0.00025   0.00021   0.00018
           d13          0.00212   0.00251   0.00293   0.00294   0.00279
           d14          0.00377   0.00494   0.00671   0.00574   0.00494
           d15          0.00377   0.00494   0.00671   0.00574   0.00494
           d16         -0.00024  -0.00035  -0.00054  -0.00040  -0.00031
           d17          0.00052   0.00075   0.00114   0.00086   0.00068
           d18         -0.00024  -0.00035  -0.00054  -0.00040  -0.00031
           d19          0.00052   0.00075   0.00114   0.00086   0.00068
                          d6        d7        d8        d9        d10
           d6           0.45458
           d7           0.00255   0.48017
           d8           0.00251   0.00325   0.48010
           d9           0.00252   0.00331   0.00327   0.48021
           d10          0.00251   0.00324   0.00320   0.00326   0.48007
           d11          0.00251   0.00345   0.00341   0.00347   0.00340
           d12          0.00013   0.00011   0.00011   0.00011   0.00011
           d13         -0.00005   0.00210   0.00207   0.00209   0.00207
           d14          0.00301   0.00320   0.00317   0.00323   0.00316
           d15          0.00301   0.00320   0.00317   0.00323   0.00316
           d16         -0.00043  -0.00016  -0.00016  -0.00017  -0.00016
           d17          0.00088   0.00036   0.00036   0.00037   0.00036
           d18         -0.00043  -0.00016  -0.00016  -0.00017  -0.00016
           d19          0.00088   0.00036   0.00036   0.00037   0.00036
                          d11       d12       d13       d14       d15
           d11          0.48050
           d12          0.00012   0.02330
           d13          0.00212   0.00009   1.04879
           d14          0.00339   0.00010   0.00229   0.47993
           d15          0.00339   0.00010   0.00229   0.00305   0.47993
           d16         -0.00019  -0.00000  -0.00025  -0.00012  -0.00012
           d17          0.00041   0.00001   0.00051   0.00026   0.00026
           d18         -0.00019  -0.00000  -0.00025  -0.00012  -0.00012
           d19          0.00041   0.00001   0.00051   0.00026   0.00026
                          d16       d17       d18       d19
           d16          0.02719
           d17          0.00003   0.70667
           d18         -0.00002   0.00003   0.02719
           d19          0.00003  -0.00006   0.00003   0.70667
 ITU=  1  0
     Eigenvalues ---    0.02330   0.02717   0.02721   0.45348   0.47677
     Eigenvalues ---    0.47688   0.47688   0.47688   0.47688   0.47688
     Eigenvalues ---    0.49681   0.67186   0.67193   0.70437   0.70673
     Eigenvalues ---    0.70905   1.04893   1.12461   2.02298
 RFO step:  Lambda=-4.26685317D-03 EMin= 2.33037379D-02
 Quartic linear search produced a step of  0.90941.
 Variable       Old X    -DE/DX   Delta X   Delta X   Delta X     New X
                                 (Linear)    (Quad)   (Total)
    d1        2.53225   0.01944   0.06876   0.00279   0.07155   2.60381
    d2        2.54319   0.05767   0.07870  -0.00906   0.06964   2.61283
    d3        2.55206   0.07863   0.08677  -0.02262   0.06415   2.61621
    d4        2.55852   0.06980   0.09265  -0.01278   0.07987   2.63840
    d5        2.55612   0.03604   0.09046  -0.00087   0.08960   2.64572
    d6        2.62443  -0.01687  -0.01926  -0.03847  -0.05773   2.56670
    d7        1.96790   0.03378   0.07109   0.01518   0.08627   2.05417
    d8        1.96674   0.03325   0.07003   0.01484   0.08488   2.05161
    d9        1.96721   0.03337   0.07047   0.01460   0.08507   2.05228
   d10        1.96674   0.03328   0.07003   0.01496   0.08499   2.05172
   d11        1.96790   0.03340   0.07109   0.01364   0.08473   2.05263
   d12        5.29479   0.00082   0.00324   0.04239   0.04563   5.34042
   d13        2.27938   0.00466   0.01064  -0.00849   0.00215   2.28153
   d14        1.97780   0.03921   0.08010   0.02180   0.10190   2.07970
   d15        1.97780   0.03921   0.08010   0.02180   0.10190   2.07970
   d16        4.33563  -0.00291  -0.00976  -0.13673  -0.14649   4.18915
   d17        1.72295   0.01343   0.02018   0.00358   0.02376   1.74671
   d18        4.33563  -0.00291  -0.00976  -0.13673  -0.14649   4.18915
   d19        1.72295   0.01343   0.02018   0.00358   0.02376   1.74671
         Item               Value     Threshold  Converged?
 Maximum Force            0.078630     0.000450     NO 
 RMS     Force            0.036563     0.000300     NO 
 Maximum Displacement     0.146489     0.001800     NO 
 RMS     Displacement     0.084296     0.001200     NO 
 Predicted change in Energy=-1.553068D-02
 GradGradGradGradGradGradGradGradGradGradGradGradGradGradGradGradGradGrad

 ---------------------------------------------------------------------------------------------------
                            Z-MATRIX (ANGSTROMS AND DEGREES)
   CD    Cent   Atom    N1       Length/X        N2       Alpha/Y        N3        Beta/Z          J
 ---------------------------------------------------------------------------------------------------
      1      1  C 
      2      2  C        1   1.377876(     1)
      3      3  C        2   1.382650(     2)      1  120.000(    20)
      4      4  C        3   1.384437(     3)      2  120.000(    21)      1    0.000(    38)      0
      5      5  C        4   1.396180(     4)      3  120.000(    22)      2    0.000(    39)      0
      6      6  C        5   1.400053(     5)      4  120.000(    23)      3    0.000(    40)      0
      7      7  F        1   1.358240(     6)      2  120.000(    24)      3  180.000(    41)      0
      8      8  H        2   1.087019(     7)      3  120.000(    25)      4  180.000(    42)      0
      9      9  H        3   1.085666(     8)      4  120.000(    26)      5  180.000(    43)      0
     10     10  H        4   1.086019(     9)      5  120.000(    27)      6  180.000(    44)      0
     11     11  H        5   1.085725(    10)      6  120.000(    28)      1  180.000(    45)      0
     12     12  H        6   1.086202(    11)      1  120.000(    29)      2  180.000(    46)      0
[...]
    18  F    3.717808   2.743146   3.855370   5.405812   6.037991
    19  H    3.223691   1.854556   3.356686   5.139948   5.835306
    20  F    3.717808   2.743146   3.855370   5.405812   6.037991
                   11         12         13         14         15
    11  H    0.000000
    12  H    2.506751   0.000000
    13  O    7.009334   4.681253   0.000000
    14  C    8.163781   5.778302   1.205168   0.000000
    15  H    8.747657   6.364320   1.997376   1.100411   0.000000
    16  H    8.747657   6.364320   1.997376   1.100411   1.905967
    17  H    5.147197   3.339558   2.991130   4.013587   4.215636
    18  F    5.412854   3.842425   3.727973   4.631135   4.642068
    19  H    5.147197   3.339558   2.991130   4.013587   4.973292
    20  F    5.412854   3.842425   3.727973   4.631135   5.655741
                   16         17         18         19         20
    16  H    0.000000
    17  H    4.973292   0.000000
    18  F    5.655741   0.926092   0.000000
    19  H    4.215636   3.652763   4.567617   0.000000
    20  F    4.642068   4.567617   5.476808   0.926092   0.000000
 Stoichiometry    C7H9F3O
 Framework group  CS[SG(C7H5FO),X(H4F2)]
 Deg. of freedom    34
 Full point group                 CS      NOp   2
 Largest Abelian subgroup         CS      NOp   2
 Largest concise Abelian subgroup CS      NOp   2
                         Standard orientation:                         
 ---------------------------------------------------------------------
 Center     Atomic      Atomic             Coordinates (Angstroms)
 Number     Number       Type             X           Y           Z
 ---------------------------------------------------------------------
      1          6           0       -0.006300   -0.702293   -0.000000
      2          6           0       -1.197603   -1.390092   -0.000000
      3          6           0       -1.197603   -2.771693   -0.000000
      4          6           0        0.003170   -3.464959   -0.000000
      5          6           0        1.212526   -2.766737   -0.000000
      6          6           0        1.212526   -1.366075   -0.000000
      7          9           0       -0.006300    0.672177    0.000000
      8          1           0       -2.136538   -0.847998   -0.000000
      9          1           0       -2.135084   -3.312948   -0.000000
     10          1           0        0.003170   -4.547897   -0.000000
     11          1           0        2.149932   -3.307949   -0.000000
     12          1           0        2.136909   -0.801232   -0.000000
     13          8           0       -0.001604    3.363008    0.000000
     14          6           0        0.001892    4.568171    0.000000
     15          1           0        0.002747    5.118375    0.952983
     16          1           0        0.002747    5.118375   -0.952983
     17          1           0       -0.006300    0.994217    1.826381
     18          9           0       -0.006300    0.833403    2.738404
     19          1           0       -0.006300    0.994217   -1.826381
     20          9           0       -0.006300    0.833403   -2.738404
 ---------------------------------------------------------------------
 Rotational constants (GHZ):           1.3241884           0.4891729           0.4080734

 **********************************************************************

            Population analysis using the SCF Density.

 **********************************************************************

 Orbital symmetries:
       Occupied  (A') (A') (A") (A') (A') (A') (A') (A') (A') (A')
                 (A') (A') (A") (A') (A') (A') (A') (A') (A') (A')
                 (A') (A") (A') (A') (A') (A") (A') (A") (A') (A')
                 (A') (A') (A") (A") (A') (A') (A') (A") (A') (A')
                 (A") (A") (A")
       Virtual   (A') (A') (A") (A") (A') (A') (A") (A') (A') (A')
                 (A") (A') (A') (A") (A') (A") (A') (A') (A') (A")
                 (A') (A') (A') (A') (A') (A") (A") (A') (A") (A')
                 (A") (A') (A') (A') (A') (A') (A') (A") (A') (A")
                 (A') (A') (A") (A') (A') (A') (A") (A') (A') (A")
                 (A') (A') (A') (A') (A") (A') (A') (A') (A') (A")
                 (A') (A') (A') (A') (A') (A") (A') (A') (A") (A')
                 (A') (A') (A') (A') (A") (A') (A') (A") (A") (A')
                 (A') (A') (A") (A') (A") (A') (A") (A") (A') (A")
                 (A') (A') (A') (A') (A") (A') (A') (A') (A') (A')
                 (A') (A') (A') (A') (A') (A') (A") (A') (A') (A')
                 (A") (A") (A") (A") (A') (A") (A') (A") (A") (A')
                 (A") (A') (A') (A') (A") (A') (A") (A") (A") (A')
                 (A") (A') (A') (A') (A') (A') (A') (A") (A") (A')
                 (A") (A') (A') (A') (A') (A') (A") (A") (A') (A")
                 (A') (A") (A') (A') (A') (A") (A') (A") (A") (A')
                 (A') (A") (A') (A') (A") (A') (A') (A") (A') (A')
                 (A') (A") (A') (A') (A") (A') (A") (A") (A') (A')
                 (A') (A") (A') (A") (A') (A') (A') (A') (A') (A')
                 (A") (A') (A') (A') (A') (A") (A') (A") (A') (A")
                 (A") (A") (A') (A') (A") (A') (A') (A') (A') (A')
                 (A') (A') (A') (A") (A') (A") (A') (A") (A") (A")
                 (A') (A') (A') (A") (A') (A') (A') (A") (A') (A')
                 (A") (A') (A') (A') (A') (A') (A") (A') (A') (A")
                 (A') (A") (A') (A") (A') (A") (A') (A') (A') (A")
                 (A') (A') (A') (A') (A') (A') (A') (A') (A') (A")
                 (A')
 The electronic state is 1-A'.
 Alpha  occ. eigenvalues --  -25.29749 -25.23079 -25.23079 -19.64699 -10.64901
 Alpha  occ. eigenvalues --  -10.63984 -10.56826 -10.56542 -10.56504 -10.56230
 Alpha  occ. eigenvalues --  -10.55776  -1.41080  -1.34148  -1.34067  -1.19355
 Alpha  occ. eigenvalues --   -0.98847  -0.87018  -0.86786  -0.72932  -0.72602
 Alpha  occ. eigenvalues --   -0.72027  -0.66569  -0.65326  -0.63791  -0.60051
 Alpha  occ. eigenvalues --   -0.59064  -0.58792  -0.58383  -0.54026  -0.52894
 Alpha  occ. eigenvalues --   -0.51710  -0.51542  -0.51522  -0.51497  -0.51327
 Alpha  occ. eigenvalues --   -0.50617  -0.47875  -0.45764  -0.44473  -0.42394
 Alpha  occ. eigenvalues --   -0.35024  -0.33085  -0.32588
 Alpha virt. eigenvalues --   -0.00844  -0.00325  -0.00120   0.00483   0.00794
 Alpha virt. eigenvalues --    0.01377   0.02036   0.02167   0.03345   0.03611
 Alpha virt. eigenvalues --    0.04700   0.05723   0.07039   0.07709   0.07768
 Alpha virt. eigenvalues --    0.08989   0.09101   0.10490   0.11503   0.11601
 Alpha virt. eigenvalues --    0.12417   0.12704   0.13195   0.13478   0.13777
 Alpha virt. eigenvalues --    0.13912   0.14128   0.14613   0.14668   0.15094
 Alpha virt. eigenvalues --    0.15955   0.16983   0.16990   0.17808   0.18516
 Alpha virt. eigenvalues --    0.20192   0.20315   0.21066   0.21450   0.21675
 Alpha virt. eigenvalues --    0.21840   0.22842   0.24391   0.26042   0.26706
 Alpha virt. eigenvalues --    0.27920   0.28136   0.29223   0.29578   0.30306
 Alpha virt. eigenvalues --    0.30639   0.31362   0.32178   0.32253   0.33062
 Alpha virt. eigenvalues --    0.33437   0.34465   0.35300   0.36408   0.36958
 Alpha virt. eigenvalues --    0.38404   0.38424   0.40057   0.42525   0.43424
 Alpha virt. eigenvalues --    0.43955   0.43970   0.45464   0.50560   0.50741
 Alpha virt. eigenvalues --    0.51754   0.52643   0.55271   0.56610   0.56628
 Alpha virt. eigenvalues --    0.57804   0.58099   0.58829   0.59161   0.59877
 Alpha virt. eigenvalues --    0.60464   0.61148   0.61170   0.63117   0.63964
 Alpha virt. eigenvalues --    0.63981   0.65086   0.68106   0.68968   0.73233
 Alpha virt. eigenvalues --    0.73675   0.74759   0.76418   0.77394   0.78053
 Alpha virt. eigenvalues --    0.80980   0.82713   0.85017   0.87454   0.87900
 Alpha virt. eigenvalues --    0.89516   0.91241   0.93044   0.94553   0.95762
 Alpha virt. eigenvalues --    1.02331   1.03901   1.04733   1.05550   1.06282
 Alpha virt. eigenvalues --    1.06326   1.06579   1.11713   1.16291   1.16952
 Alpha virt. eigenvalues --    1.17676   1.22256   1.23130   1.25483   1.31825
 Alpha virt. eigenvalues --    1.32132   1.33560   1.34459   1.36603   1.36719
 Alpha virt. eigenvalues --    1.39724   1.43372   1.44553   1.45449   1.47580
 Alpha virt. eigenvalues --    1.48459   1.48638   1.49643   1.51261   1.51584
 Alpha virt. eigenvalues --    1.55265   1.56251   1.59624   1.60082   1.60758
 Alpha virt. eigenvalues --    1.60943   1.61060   1.62775   1.67942   1.68761
 Alpha virt. eigenvalues --    1.69452   1.69597   1.72125   1.76873   1.76952
 Alpha virt. eigenvalues --    1.78254   1.79593   1.80778   1.86004   1.87418
 Alpha virt. eigenvalues --    1.90215   1.91175   1.93838   1.94168   1.95156
 Alpha virt. eigenvalues --    1.96071   1.96770   1.98902   1.99394   2.01214
 Alpha virt. eigenvalues --    2.04236   2.07156   2.09800   2.10057   2.12717
 Alpha virt. eigenvalues --    2.17510   2.29272   2.30025   2.33410   2.34784
 Alpha virt. eigenvalues --    2.43764   2.44489   2.45852   2.47916   2.48207
 Alpha virt. eigenvalues --    2.52612   2.53412   2.54058   2.57384   2.61123
 Alpha virt. eigenvalues --    2.65968   2.67286   2.70355   2.72466   2.72810
 Alpha virt. eigenvalues --    2.73419   2.74692   2.75100   2.77297   2.79099
 Alpha virt. eigenvalues --    2.83535   2.85287   2.86789   2.89737   2.93513
 Alpha virt. eigenvalues --    2.94171   2.94623   2.97797   3.00458   3.14128
 Alpha virt. eigenvalues --    3.18297   3.25794   3.38648   3.38887   3.42899
 Alpha virt. eigenvalues --    3.48207   3.52570   3.55952   3.56658   3.66910
 Alpha virt. eigenvalues --    3.75447   3.78779   3.83676   3.88800   3.89108
 Alpha virt. eigenvalues --    3.89249   3.89486   3.93218   4.01734   4.02500
 Alpha virt. eigenvalues --    4.07239   4.08845   4.12087   4.12937   4.14103
 Alpha virt. eigenvalues --    4.14871   4.16023   4.17613   4.21551   4.85176
 Alpha virt. eigenvalues --    4.88346   4.89148   4.91928   5.11140   5.22048
 Alpha virt. eigenvalues --    5.80048   6.41579   6.42518   6.48089   6.48150
 Alpha virt. eigenvalues --    6.58429   6.58650   6.79338   6.90687   6.95026
 Alpha virt. eigenvalues --   23.68618  23.99875  24.01580  24.04743  24.15280
 Alpha virt. eigenvalues --   24.16514  24.27227  50.05353  66.90123  66.91651
 Alpha virt. eigenvalues --   66.94564
          Condensed to atoms (all electrons):
               1          2          3          4          5          6
     1  C   13.216948  -1.640455  -2.407978  -0.197860  -1.966957  -0.967703
     2  C   -1.640455  12.803607   2.228077  -0.754278  -0.708905  -6.106582
     3  C   -2.407978   2.228077   7.037075   0.406289  -0.262290  -1.034069
     4  C   -0.197860  -0.754278   0.406289   6.668666   0.343407  -0.571462
     5  C   -1.966957  -0.708905  -0.262290   0.343407   6.690166   1.876254
     6  C   -0.967703  -6.106582  -1.034069  -0.571462   1.876254  12.624603
     7  F    0.439367  -0.243005  -0.037619   0.006029  -0.034055  -0.238445
     8  H   -0.077139   0.477860  -0.051562  -0.006018   0.012357  -0.028019
     9  H   -0.028291  -0.020695   0.416347  -0.085482   0.012974   0.031017
    10  H    0.042306  -0.019092  -0.077952   0.483311  -0.075294  -0.014616
    11  H   -0.023079   0.035961   0.012316  -0.086909   0.412346  -0.025619
    12  H   -0.076366  -0.029723   0.009986  -0.002794  -0.048480   0.474849
    13  O    0.069916  -0.022087  -0.001326  -0.000696  -0.000967  -0.020763
    14  C   -0.001055  -0.001442  -0.000002   0.000040  -0.000030  -0.001334
    15  H   -0.000557   0.000182   0.000016  -0.000008   0.000015   0.000176
    16  H   -0.000557   0.000182   0.000016  -0.000008   0.000015   0.000176
    17  H    0.019746  -0.004801  -0.001623  -0.003276  -0.001102  -0.004653
    18  F    0.138947  -0.038902  -0.022083   0.009103  -0.021042  -0.037098
    19  H    0.019746  -0.004801  -0.001623  -0.003276  -0.001102  -0.004653
    20  F    0.138947  -0.038902  -0.022083   0.009103  -0.021042  -0.037098
               7          8          9         10         11         12
     1  C    0.439367  -0.077139  -0.028291   0.042306  -0.023079  -0.076366
     2  C   -0.243005   0.477860  -0.020695  -0.019092   0.035961  -0.029723
     3  C   -0.037619  -0.051562   0.416347  -0.077952   0.012316   0.009986
     4  C    0.006029  -0.006018  -0.085482   0.483311  -0.086909  -0.002794
     5  C   -0.034055   0.012357   0.012974  -0.075294   0.412346  -0.048480
     6  C   -0.238445  -0.028019   0.031017  -0.014616  -0.025619   0.474849
     7  F    9.211014  -0.013991  -0.000751   0.000431  -0.000852  -0.013473
     8  H   -0.013991   0.450858  -0.003690   0.000876   0.001198   0.000952
     9  H   -0.000751  -0.003690   0.438225  -0.008579   0.001544   0.001102
    10  H    0.000431   0.000876  -0.008579   0.455969  -0.008237   0.000888
    11  H   -0.000852   0.001198   0.001544  -0.008237   0.437115  -0.003126
    12  H   -0.013473   0.000952   0.001102   0.000888  -0.003126   0.448384
    13  O    0.001501   0.001678   0.000031  -0.000006   0.000030   0.001734
    14  C    0.000987  -0.000279   0.000003   0.000002   0.000002  -0.000257
    15  H   -0.000381  -0.000025   0.000001  -0.000000   0.000002  -0.000027
    16  H   -0.000381  -0.000025   0.000001  -0.000000   0.000002  -0.000027
    17  H    0.019940  -0.000940   0.000218  -0.000110   0.000212  -0.000934
    18  F   -0.009668  -0.000667  -0.000801   0.000119  -0.000800  -0.000695
    19  H    0.019940  -0.000940   0.000218  -0.000110   0.000212  -0.000934
    20  F   -0.009668  -0.000667  -0.000801   0.000119  -0.000800  -0.000695
              13         14         15         16         17         18
     1  C    0.069916  -0.001055  -0.000557  -0.000557   0.019746   0.138947
     2  C   -0.022087  -0.001442   0.000182   0.000182  -0.004801  -0.038902
     3  C   -0.001326  -0.000002   0.000016   0.000016  -0.001623  -0.022083
     4  C   -0.000696   0.000040  -0.000008  -0.000008  -0.003276   0.009103
     5  C   -0.000967  -0.000030   0.000015   0.000015  -0.001102  -0.021042
     6  C   -0.020763  -0.001334   0.000176   0.000176  -0.004653  -0.037098
     7  F    0.001501   0.000987  -0.000381  -0.000381   0.019940  -0.009668
     8  H    0.001678  -0.000279  -0.000025  -0.000025  -0.000940  -0.000667
     9  H    0.000031   0.000003   0.000001   0.000001   0.000218  -0.000801
    10  H   -0.000006   0.000002  -0.000000  -0.000000  -0.000110   0.000119
    11  H    0.000030   0.000002   0.000002   0.000002   0.000212  -0.000800
    12  H    0.001734  -0.000257  -0.000027  -0.000027  -0.000934  -0.000695
    13  O    8.194795   0.233768  -0.089565  -0.089565   0.002732  -0.001689
    14  C    0.233768   4.923742   0.413644   0.413644   0.001241  -0.001026
    15  H   -0.089565   0.413644   0.612776  -0.081892  -0.000686   0.000249
    16  H   -0.089565   0.413644  -0.081892   0.612776   0.000329  -0.000152
    17  H    0.002732   0.001241  -0.000686   0.000329   0.380161   0.317890
    18  F   -0.001689  -0.001026   0.000249  -0.000152   0.317890   8.940999
    19  H    0.002732   0.001241   0.000329  -0.000686  -0.004393   0.001528
    20  F   -0.001689  -0.001026  -0.000152   0.000249   0.001528  -0.000186
              19         20
     1  C    0.019746   0.138947
     2  C   -0.004801  -0.038902
     3  C   -0.001623  -0.022083
     4  C   -0.003276   0.009103
     5  C   -0.001102  -0.021042
     6  C   -0.004653  -0.037098
     7  F    0.019940  -0.009668
     8  H   -0.000940  -0.000667
     9  H    0.000218  -0.000801
    10  H   -0.000110   0.000119
    11  H    0.000212  -0.000800
    12  H   -0.000934  -0.000695
    13  O    0.002732  -0.001689
    14  C    0.001241  -0.001026
    15  H    0.000329  -0.000152
    16  H   -0.000686   0.000249
    17  H   -0.004393   0.001528
    18  F    0.001528  -0.000186
    19  H    0.380161   0.317890
    20  F    0.317890   8.940999
 Mulliken charges:
               1
     1  C   -0.697926
     2  C    0.087800
     3  C   -0.189912
     4  C   -0.213882
     5  C   -0.206267
     6  C    0.085038
     7  F   -0.096921
     8  H    0.238183
     9  H    0.247406
    10  H    0.219977
    11  H    0.248483
    12  H    0.239635
    13  O   -0.280563
    14  C    0.018138
    15  H    0.145905
    16  H    0.145905
    17  H    0.278523
    18  F   -0.274023
    19  H    0.278523
    20  F   -0.274023
 Sum of Mulliken charges =  -0.00000
 Mulliken charges with hydrogens summed into heavy atoms:
               1
     1  C   -0.697926
     2  C    0.325984
     3  C    0.057494
     4  C    0.006095
     5  C    0.042216
     6  C    0.324673
     7  F   -0.096921
    13  O   -0.280563
    14  C    0.309948
    18  F    0.004500
    20  F    0.004500
 Electronic spatial extent (au):  <R**2>=           2686.8586
 Charge=              0.0000 electrons
 Dipole moment (field-independent basis, Debye):
    X=             -0.0071    Y=              0.7816    Z=             -0.0000  Tot=              0.7817
 Quadrupole moment (field-independent basis, Debye-Ang):
   XX=            -55.7458   YY=            -28.1216   ZZ=            -85.9875
   XY=              0.1639   XZ=             -0.0000   YZ=             -0.0000
 Traceless Quadrupole moment (field-independent basis, Debye-Ang):
   XX=              0.8725   YY=             28.4967   ZZ=            -29.3692
   XY=              0.1639   XZ=             -0.0000   YZ=             -0.0000
 Octapole moment (field-independent basis, Debye-Ang**2):
  XXX=             -0.2121  YYY=            142.0313  ZZZ=              0.0000  XYY=             -0.2079
  XXY=             -1.6492  XXZ=              0.0000  XZZ=             -0.0665  YZZ=             11.2860
  YYZ=             -0.0000  XYZ=              0.0000
 Hexadecapole moment (field-independent basis, Debye-Ang**3):
 XXXX=           -267.3048 YYYY=          -1464.9067 ZZZZ=           -755.2716 XXXY=              1.1214
 XXXZ=             -0.0000 YYYX=              1.8947 YYYZ=             -0.0000 ZZZX=             -0.0000
 ZZZY=             -0.0000 XXYY=           -422.4059 XXZZ=           -156.3321 YYZZ=           -528.0126
 XXYZ=              0.0000 YYXZ=              0.0000 ZZXY=              0.5813
 N-N= 5.862584294327D+02 E-N=-2.697398631922D+03  KE= 6.448074704233D+02
 Symmetry A'   KE= 5.251909921598D+02
 Symmetry A"   KE= 1.196164782634D+02
 1\1\GINC-R820\POpt\RM062X\6-311++G(d,p)\C7H9F3O1\ZJXU\29-Mar-2024\1\\#
  m062x 6-311++G(d,p) opt=z-matrix scrf=(solvent=water)\\test\\0,1\C\C,
 1,d1\C,2,d2,1,120.\C,3,d3,2,120.,1,0.,0\C,4,d4,3,120.,2,0.,0\C,5,d5,4,
 120.,3,0.,0\F,1,d6,2,120.,3,180.,0\H,2,d7,3,120.,4,180.,0\H,3,d8,4,120
 .,5,180.,0\H,4,d9,5,120.,6,180.,0\H,5,d10,6,120.,1,180.,0\H,6,d11,1,12
 0.,2,180.,0\O,7,d12,1,179.9,3,180.,0\C,13,d13,1,179.9,2,180.,0\H,14,d1
 4,1,120.,2,90.,0\H,14,d15,1,120.,2,-90.,0\H,7,d16,1,100.,2,90.,0\F,17,
 d17,7,160.,1,0.,0\H,7,d18,1,100.,2,-90.,0\F,19,d19,7,160.,1,0.,0\\d1=1
 .37559804\d2=1.38160047\d3=1.38653281\d4=1.39644435\d5=1.40066244\d6=1
 .3744705\d7=1.08418848\d8=1.08250973\d9=1.08293804\d10=1.08242278\d11=
 1.08329625\d12=2.69083509\d13=1.20516767\d14=1.10041054\d15=1.10041054
 \d16=1.85455615\d17=0.92609206\d18=1.85455615\d19=0.92609206\\Version=
 ES64L-G16RevB.01\State=1-A'\HF=-646.844341\RMSD=6.023e-09\RMSF=4.595e-
 03\Dipole=-0.2677255,0.,-0.1513309\Quadrupole=15.9465614,-21.8352833,5
 .8887219,0.,8.954127,0.\PG=CS [SG(C7H5F1O1),X(H4F2)]\\@


 "WHERE SHALL I START, PLEASE YOUR MAJESTY?" HE ASKED.
 "BEGIN AT THE BEGINNING," THE KING SAID GRAVELY,
 "AND GO ON TILL YOU COME TO THE END: THEN STOP." 

                                      -- LEWIS CARROLL
 Job cpu time:       0 days  1 hours 17 minutes  0.7 seconds.
 Elapsed time:       0 days  0 hours 38 minutes 32.2 seconds.
 File lengths (MBytes):  RWF=    202 Int=      0 D2E=      0 Chk=     12 Scr=      1
 Normal termination of Gaussian 16 at Fri Mar 29 18:59:43 2024.
