 Entering Gaussian System, Link 0=g16
 Input=model_H1.gjf
 Output=model_H1.log
 Initial command:
 /home/zjxu/prog/g16/l1.exe "/home/zjxu/zjhan/5_model/HBr/chloroform/Gau-33349.inp" -scrdir="/home/zjxu/zjhan/5_model/HBr/chloroform/"
 Entering Link 1 = /home/zjxu/prog/g16/l1.exe PID=     33350.
  
 Copyright (c) 1988-2017, Gaussian, Inc.  All Rights Reserved.
  
 This is part of the Gaussian(R) 16 program.  It is based on
 the Gaussian(R) 09 system (copyright 2009, Gaussian, Inc.),
 the Gaussian(R) 03 system (copyright 2003, Gaussian, Inc.),
 the Gaussian(R) 98 system (copyright 1998, Gaussian, Inc.),
 the Gaussian(R) 94 system (copyright 1995, Gaussian, Inc.),
 the Gaussian 92(TM) system (copyright 1992, Gaussian, Inc.),
 the Gaussian 90(TM) system (copyright 1990, Gaussian, Inc.),
 the Gaussian 88(TM) system (copyright 1988, Gaussian, Inc.),
 the Gaussian 86(TM) system (copyright 1986, Carnegie Mellon
 University), and the Gaussian 82(TM) system (copyright 1983,
 Carnegie Mellon University). Gaussian is a federally registered
 trademark of Gaussian, Inc.
  
 This software contains proprietary and confidential information,
 including trade secrets, belonging to Gaussian, Inc.
  
 This software is provided under written license and may be
 used, copied, transmitted, or stored only in accord with that
 written license.
  
 The following legend is applicable only to US Government
 contracts under FAR:
  
                    RESTRICTED RIGHTS LEGEND
  
 Use, reproduction and disclosure by the US Government is
 subject to restrictions as set forth in subparagraphs (a)
 and (c) of the Commercial Computer Software - Restricted
 Rights clause in FAR 52.227-19.
  
 Gaussian, Inc.
 340 Quinnipiac St., Bldg. 40, Wallingford CT 06492
  
  
 ---------------------------------------------------------------
 Warning -- This program may not be used in any manner that
 competes with the business of Gaussian, Inc. or will provide
 assistance to any competitor of Gaussian, Inc.  The licensee
 of this program is prohibited from giving any competitor of
 Gaussian, Inc. access to this program.  By using this program,
 the user acknowledges that Gaussian, Inc. is engaged in the
 business of creating and licensing software in the field of
 computational chemistry and represents and warrants to the
 licensee that it is not a competitor of Gaussian, Inc. and that
 it will not use this program in any manner prohibited above.
 ---------------------------------------------------------------
  

 Cite this work as:
 Gaussian 16, Revision B.01,
 M. J. Frisch, G. W. Trucks, H. B. Schlegel, G. E. Scuseria, 
 M. A. Robb, J. R. Cheeseman, G. Scalmani, V. Barone, 
 G. A. Petersson, H. Nakatsuji, X. Li, M. Caricato, A. V. Marenich, 
 J. Bloino, B. G. Janesko, R. Gomperts, B. Mennucci, H. P. Hratchian, 
 J. V. Ortiz, A. F. Izmaylov, J. L. Sonnenberg, D. Williams-Young, 
 F. Ding, F. Lipparini, F. Egidi, J. Goings, B. Peng, A. Petrone, 
 T. Henderson, D. Ranasinghe, V. G. Zakrzewski, J. Gao, N. Rega, 
 G. Zheng, W. Liang, M. Hada, M. Ehara, K. Toyota, R. Fukuda, 
 J. Hasegawa, M. Ishida, T. Nakajima, Y. Honda, O. Kitao, H. Nakai, 
 T. Vreven, K. Throssell, J. A. Montgomery, Jr., J. E. Peralta, 
 F. Ogliaro, M. J. Bearpark, J. J. Heyd, E. N. Brothers, K. N. Kudin, 
 V. N. Staroverov, T. A. Keith, R. Kobayashi, J. Normand, 
 K. Raghavachari, A. P. Rendell, J. C. Burant, S. S. Iyengar, 
 J. Tomasi, M. Cossi, J. M. Millam, M. Klene, C. Adamo, R. Cammi, 
 J. W. Ochterski, R. L. Martin, K. Morokuma, O. Farkas, 
 J. B. Foresman, and D. J. Fox, Gaussian, Inc., Wallingford CT, 2016.
 
 ******************************************
 Gaussian 16:  ES64L-G16RevB.01 20-Dec-2017
                28-Mar-2024 
 ******************************************
 %mem=2GB
 %nproc=2
 Will use up to    2 processors via shared memory.
 %chk=model_H1
 ----------------------------------------------------------------------
 # m062x 6-311++G(d,p) opt=(z-matrix,maxcyc=50) scrf=(solvent=chlorofor
 m)
 ----------------------------------------------------------------------
 1/6=50,10=7,18=40,26=3,38=1/1,3;
 2/12=2,17=6,18=5,29=3,40=1/2;
 3/5=4,6=6,7=1111,11=2,25=1,30=1,70=2201,71=1,72=7,74=-55/1,2,3;
 4//1;
 5/5=2,38=5,53=7/2;
 6/7=2,8=2,9=2,10=2,28=1/1;
 7/29=1/1,2,3,16;
 1/6=50,10=7,18=40,26=3/3(2);
 2/29=3/2;
 99//99;
 2/29=3/2;
 3/5=4,6=6,7=1111,11=2,25=1,30=1,70=2205,71=1,72=7,74=-55/1,2,3;
 4/5=5,16=3,69=1/1;
 5/5=2,38=5,53=7/2;
 7//1,2,3,16;
 1/6=50,18=40,26=3/3(-5);
 2/29=3/2;
 6/7=2,8=2,9=2,10=2,19=2,28=1/1;
 99/9=1/99;
 ----
 test
 ----
 Symbolic Z-matrix:
 Charge =  0 Multiplicity = 1
 C1
 C2                   1    d1
 C3                   2    d2       1     120. 
 C4                   3    d3       2     120.     1     0.       0
 C5                   4    d4       3     120.     2     0.       0
 C6                   5    d5       4     120.     3     0.       0
 F7                   1    d6       2     120.     3     180.     0
 H8                   2    d7       3     120.     4     180.     0
 H9                   3    d8       4     120.     5     180.     0
 H10                  4    d9       5     120.     6     180.     0
 H11                  5    d10      6     120.     1     180.     0
 H12                  6    d11      1     120.     2     180.     0
 O13                  7    d12      1     179.9    3     180.     0
 C14                  13   d13      1     179.9    2     180.     0
 H15                  14   d14      1     120.     2     90.      0
 H16                  14   d15      1     120.     2    -90.      0
 H17                  7    d16      1     100.     2     90.      0
 Br18                 17   d17      7     160.     1     0.       0
       Variables:
  d1                    1.3                      
  d2                    1.3                      
  d3                    1.3                      
  d4                    1.3                      
  d5                    1.3                      
  d6                    1.4                      
  d7                    1.                       
  d8                    1.                       
  d9                    1.                       
  d10                   1.                       
  d11                   1.                       
  d12                   2.8                      
  d13                   1.2                      
  d14                   1.                       
  d15                   1.                       
  d16                   3.2                      
  d17                   0.9                      
 

 GradGradGradGradGradGradGradGradGradGradGradGradGradGradGradGradGradGrad
 Berny optimization.
 Initialization pass.
                       ----------------------------
                       !    Initial Parameters    !
                       ! (Angstroms and Degrees)  !
 ----------------------                            ----------------------
 !      Name          Value   Derivative information (Atomic Units)     !
 ------------------------------------------------------------------------
 !       d1          1.3      estimate D2E/DX2                          !
 !       d2          1.3      estimate D2E/DX2                          !
 !       d3          1.3      estimate D2E/DX2                          !
 !       d4          1.3      estimate D2E/DX2                          !
 !       d5          1.3      estimate D2E/DX2                          !
 !       d6          1.4      estimate D2E/DX2                          !
 !       d7          1.0      estimate D2E/DX2                          !
 !       d8          1.0      estimate D2E/DX2                          !
 !       d9          1.0      estimate D2E/DX2                          !
 !       d10         1.0      estimate D2E/DX2                          !
 !       d11         1.0      estimate D2E/DX2                          !
 !       d12         2.8      estimate D2E/DX2                          !
 !       d13         1.2      estimate D2E/DX2                          !
 !       d14         1.0      estimate D2E/DX2                          !
 !       d15         1.0      estimate D2E/DX2                          !
 !       d16         3.2      estimate D2E/DX2                          !
 !       d17         0.9      estimate D2E/DX2                          !
 ------------------------------------------------------------------------
 Trust Radius=3.00D-01 FncErr=1.00D-07 GrdErr=1.00D-06 EigMax=2.50D+02 EigMin=1.00D-04
 Number of steps in this run=     50 maximum allowed number of steps=    100.
 GradGradGradGradGradGradGradGradGradGradGradGradGradGradGradGradGradGrad

 ---------------------------------------------------------------------------------------------------
                            Z-MATRIX (ANGSTROMS AND DEGREES)
   CD    Cent   Atom    N1       Length/X        N2       Alpha/Y        N3        Beta/Z          J
 ---------------------------------------------------------------------------------------------------
      1      1  C 
      2      2  C        1   1.300000(     1)
      3      3  C        2   1.300000(     2)      1  120.000(    18)
      4      4  C        3   1.300000(     3)      2  120.000(    19)      1    0.000(    34)      0
      5      5  C        4   1.300000(     4)      3  120.000(    20)      2    0.000(    35)      0
      6      6  C        5   1.300000(     5)      4  120.000(    21)      3    0.000(    36)      0
      7      7  F        1   1.400000(     6)      2  120.000(    22)      3  180.000(    37)      0
      8      8  H        2   1.000000(     7)      3  120.000(    23)      4  180.000(    38)      0
      9      9  H        3   1.000000(     8)      4  120.000(    24)      5  180.000(    39)      0
     10     10  H        4   1.000000(     9)      5  120.000(    25)      6  180.000(    40)      0
     11     11  H        5   1.000000(    10)      6  120.000(    26)      1  180.000(    41)      0
     12     12  H        6   1.000000(    11)      1  120.000(    27)      2  180.000(    42)      0
     13     13  O        7   2.800000(    12)      1  179.900(    28)      3  180.000(    43)      0
     14     14  C       13   1.200000(    13)      1  179.900(    29)      2  180.000(    44)      0
     15     15  H       14   1.000000(    14)      1  120.000(    30)      2   90.000(    45)      0
     16     16  H       14   1.000000(    15)      1  120.000(    31)      2  -90.000(    46)      0
     17     17  H        7   3.200000(    16)      1  100.000(    32)      2   90.000(    47)      0
     18     18  Br      17   0.900000(    17)      7  160.000(    33)      1    0.000(    48)      0
 ---------------------------------------------------------------------------------------------------
                         Z-Matrix orientation:                         
 ---------------------------------------------------------------------
 Center     Atomic      Atomic             Coordinates (Angstroms)
 Number     Number       Type             X           Y           Z
 ---------------------------------------------------------------------
      1          6           0        0.000000    0.000000    0.000000
      2          6           0        0.000000    0.000000    1.300000
      3          6           0        1.125833    0.000000    1.950000
      4          6           0        2.251666    0.000000    1.300000
      5          6           0        2.251666    0.000000   -0.000000
      6          6           0        1.125833    0.000000   -0.650000
      7          9           0       -1.212436   -0.000000   -0.700000
      8          1           0       -0.866025   -0.000000    1.800000
      9          1           0        1.125833   -0.000000    2.950000
     10          1           0        3.117691   -0.000000    1.800000
     11          1           0        3.117691   -0.000000   -0.500000
     12          1           0        1.125833   -0.000000   -1.650000
     13          8           0       -3.634860   -0.000000   -2.104230
     14          6           0       -4.672340   -0.000000   -2.707251
     15          1           0       -5.104965    0.866025   -2.957922
     16          1           0       -5.104965   -0.866025   -2.957922
     17          1           0       -1.693664    3.151385   -0.977837
     18         35           0       -1.558318    4.037712   -0.899695
 ---------------------------------------------------------------------
                    Distance matrix (angstroms):
                    1          2          3          4          5
     1  C    0.000000
     2  C    1.300000   0.000000
     3  C    2.251666   1.300000   0.000000
     4  C    2.600000   2.251666   1.300000   0.000000
     5  C    2.251666   2.600000   2.251666   1.300000   0.000000
     6  C    1.300000   2.251666   2.600000   2.251666   1.300000
     7  F    1.400000   2.338803   3.534119   4.000000   3.534119
     8  H    1.997498   1.000000   1.997498   3.157531   3.600000
     9  H    3.157531   1.997498   1.000000   1.997498   3.157531
    10  H    3.600000   3.157531   1.997498   1.000000   1.997498
    11  H    3.157531   3.600000   3.157531   1.997498   1.000000
    12  H    1.997498   3.157531   3.600000   3.157531   1.997498
    13  O    4.199999   4.980059   6.253077   6.799997   6.251317
    14  C    5.399997   6.155390   7.436988   7.999995   7.434452
    15  H    5.963218   6.703772   7.978755   8.543999   7.976172
    16  H    5.963218   6.703772   7.978755   8.543999   7.976172
    17  H    3.708893   4.241257   5.143250   5.539440   5.143250
    18  Br   4.420512   4.854908   5.623926   5.971412   5.623926
                    6          7          8          9         10
     6  C    0.000000
     7  F    2.338803   0.000000
     8  H    3.157531   2.523886   0.000000
     9  H    3.600000   4.334743   2.300000   0.000000
    10  H    3.157531   5.000000   3.983717   2.300000   0.000000
    11  H    1.997498   4.334743   4.600000   3.983717   2.300000
    12  H    1.000000   2.523886   3.983717   4.600000   3.983717
    13  O    4.977849   2.800000   4.786382   6.943301   7.799997
    14  C    6.152324   3.999999   5.899436   8.100821   8.999995
    15  H    6.700697   4.582575   6.430896   8.629970   9.539387
    16  H    6.700697   4.582575   6.430896   8.629970   9.539387
    17  H    4.241257   3.200000   4.281657   5.771368   6.387233
    18  Br   4.854908   4.057417   4.906194   6.190956   6.742146
                   11         12         13         14         15
    11  H    0.000000
    12  H    2.300000   0.000000
    13  O    6.940497   4.782313   0.000000
    14  C    8.096700   5.893776   1.200000   0.000000
    15  H    8.625744   6.425224   1.907878   1.000000   0.000000
    16  H    8.625744   6.425224   1.907878   1.000000   1.732051
    17  H    5.771368   4.281657   3.868880   4.668470   4.558572
    18  Br   6.190956   4.906194   4.697451   5.409945   5.184071
                   16         17         18
    16  H    0.000000
    17  H    5.630035   0.000000
    18  Br   6.392311   0.900000   0.000000
 Stoichiometry    C7H8BrFO
 Framework group  C1[X(C7H8BrFO)]
 Deg. of freedom    48
 Full point group                 C1      NOp   1
 Largest Abelian subgroup         C1      NOp   1
 Largest concise Abelian subgroup C1      NOp   1
                         Standard orientation:                         
 ---------------------------------------------------------------------
 Center     Atomic      Atomic             Coordinates (Angstroms)
 Number     Number       Type             X           Y           Z
 ---------------------------------------------------------------------
      1          6           0        1.527107    0.793825   -0.001195
      2          6           0        2.102116    0.488095   -1.126315
      3          6           0        3.250855   -0.120507   -1.124890
      4          6           0        3.824585   -0.423380    0.001655
      5          6           0        3.249576   -0.117650    1.126774
      6          6           0        2.100837    0.490952    1.125349
      7          9           0        0.290004    1.449242   -0.002729
      8          1           0        1.660786    0.721074   -1.992887
      9          1           0        3.693170   -0.355683   -1.990366
     10          1           0        4.708231   -0.891535    0.002751
     11          1           0        3.690907   -0.350629    1.993347
     12          1           0        1.658522    0.726128    1.990826
     13          8           0       -2.184203    2.760082   -0.000911
     14          6           0       -3.244575    3.321870    0.001264
     15          1           0       -4.091833    2.790690    0.002232
     16          1           0       -3.280962    4.321208    0.000751
     17          1           0       -1.676356   -1.075322   -0.000644
     18         35           0       -1.953197   -1.931685    0.000285
 ---------------------------------------------------------------------
 Rotational constants (GHZ):           0.7197071           0.4091518           0.2833288
 Standard basis: 6-311++G(d,p) (5D, 7F)
 There are   314 symmetry adapted cartesian basis functions of A   symmetry.
 There are   302 symmetry adapted basis functions of A   symmetry.
   302 basis functions,   490 primitive gaussians,   314 cartesian basis functions
    51 alpha electrons       51 beta electrons
       nuclear repulsion energy       669.5178525499 Hartrees.
 NAtoms=   18 NActive=   18 NUniq=   18 SFac= 1.00D+00 NAtFMM=   60 NAOKFM=F Big=F
 Integral buffers will be    131072 words long.
 Raffenetti 2 integral format.
 Two-electron integral symmetry is turned on.
 ------------------------------------------------------------------------------
 Polarizable Continuum Model (PCM)
 =================================
 Model                : PCM.
 Atomic radii         : UFF (Universal Force Field).
 Polarization charges : Total charges.
 Charge compensation  : None.
 Solution method      : On-the-fly selection.
 Cavity type          : Scaled VdW (van der Waals Surface) (Alpha=1.100).
 Cavity algorithm     : GePol (No added spheres)
                        Default sphere list used, NSphG=   18.
                        Lebedev-Laikov grids with approx.  5.0 points / Ang**2.
                        Smoothing algorithm: York/Karplus (Gamma=1.0000).
                        Polarization charges: spherical gaussians, with
                                              point-specific exponents (IZeta= 3).
                        Self-potential: point-specific (ISelfS= 7).
                        Self-field    : sphere-specific E.n sum rule (ISelfD= 2).
 1st derivatives      : Analytical E(r).r(x)/FMM algorithm (CHGder, D1EAlg=3).
                        Cavity 1st derivative terms included.
 Solvent              : Chloroform, Eps=   4.711300 Eps(inf)=   2.090627
 ------------------------------------------------------------------------------
 Spheres list:
 ISph  on   Nord     Re0    Alpha      Xe            Ye            Ze
    1   C      1    1.9255  1.100      1.527107      0.793825     -0.001195
    2   C      2    1.9255  1.100      2.102116      0.488095     -1.126315
    3   C      3    1.9255  1.100      3.250855     -0.120507     -1.124890
    4   C      4    1.9255  1.100      3.824585     -0.423380      0.001655
    5   C      5    1.9255  1.100      3.249576     -0.117650      1.126774
    6   C      6    1.9255  1.100      2.100837      0.490952      1.125349
    7   F      7    1.6820  1.100      0.290004      1.449242     -0.002729
    8   H      8    1.4430  1.100      1.660786      0.721074     -1.992887
    9   H      9    1.4430  1.100      3.693170     -0.355683     -1.990366
   10   H     10    1.4430  1.100      4.708231     -0.891535      0.002751
   11   H     11    1.4430  1.100      3.690907     -0.350629      1.993347
   12   H     12    1.4430  1.100      1.658522      0.726128      1.990826
   13   O     13    1.7500  1.100     -2.184203      2.760082     -0.000911
   14   C     14    1.9255  1.100     -3.244575      3.321870      0.001264
   15   H     15    1.4430  1.100     -4.091833      2.790690      0.002232
   16   H     16    1.4430  1.100     -3.280962      4.321208      0.000751
   17   H     17    1.4430  1.100     -1.676356     -1.075322     -0.000644
   18  Br     18    2.0945  1.100     -1.953197     -1.931685      0.000285
 ------------------------------------------------------------------------------
 One-electron integrals computed using PRISM.
 NBasis=   302 RedAO= T EigKep=  4.34D-06  NBF=   302
 NBsUse=   301 1.00D-06 EigRej=  5.93D-07 NBFU=   301
 ExpMin= 3.50D-02 ExpMax= 4.40D+05 ExpMxC= 1.51D+04 IAcc=3 IRadAn=         5 AccDes= 0.00D+00
 Harris functional with IExCor= 1009 and IRadAn=       5 diagonalized for initial guess.
 HarFok:  IExCor= 1009 AccDes= 0.00D+00 IRadAn=         5 IDoV= 1 UseB2=F ITyADJ=14
 ICtDFT=  3500011 ScaDFX=  1.000000  1.000000  1.000000  1.000000
 FoFCou: FMM=F IPFlag=           0 FMFlag=      100000 FMFlg1=           0
         NFxFlg=           0 DoJE=T BraDBF=F KetDBF=T FulRan=T
         wScrn=  0.000000 ICntrl=       500 IOpCl=  0 I1Cent=   200000004 NGrid=           0
         NMat0=    1 NMatS0=      1 NMatT0=    0 NMatD0=    1 NMtDS0=    0 NMtDT0=    0
 Petite list used in FoFCou.
 Requested convergence on RMS density matrix=1.00D-08 within 128 cycles.
 Requested convergence on MAX density matrix=1.00D-06.
 Requested convergence on             energy=1.00D-06.
 No special actions if energy rises.
 Inv3:  Mode=1 IEnd=    12338352.
 Iteration    1 A*A^-1 deviation from unit magnitude is 4.22D-15 for   2005.
 Iteration    1 A*A^-1 deviation from orthogonality  is 1.64D-15 for   1275   1100.
 Iteration    1 A^-1*A deviation from unit magnitude is 4.44D-15 for   2005.
 Iteration    1 A^-1*A deviation from orthogonality  is 1.47D-15 for    923    856.
 Error on total polarization charges =  0.01157
 SCF Done:  E(RM062X) =  -3020.24159152     A.U. after   13 cycles
            NFock= 13  Conv=0.10D-07     -V/T= 2.0000

 **********************************************************************

            Population analysis using the SCF Density.

 **********************************************************************

 Orbital symmetries:
       Occupied  (A) (A) (A) (A) (A) (A) (A) (A) (A) (A) (A) (A)
                 (A) (A) (A) (A) (A) (A) (A) (A) (A) (A) (A) (A)
                 (A) (A) (A) (A) (A) (A) (A) (A) (A) (A) (A) (A)
                 (A) (A) (A) (A) (A) (A) (A) (A) (A) (A) (A) (A)
                 (A) (A) (A)
       Virtual   (A) (A) (A) (A) (A) (A) (A) (A) (A) (A) (A) (A)
                 (A) (A) (A) (A) (A) (A) (A) (A) (A) (A) (A) (A)
                 (A) (A) (A) (A) (A) (A) (A) (A) (A) (A) (A) (A)
                 (A) (A) (A) (A) (A) (A) (A) (A) (A) (A) (A) (A)
                 (A) (A) (A) (A) (A) (A) (A) (A) (A) (A) (A) (A)
                 (A) (A) (A) (A) (A) (A) (A) (A) (A) (A) (A) (A)
                 (A) (A) (A) (A) (A) (A) (A) (A) (A) (A) (A) (A)
                 (A) (A) (A) (A) (A) (A) (A) (A) (A) (A) (A) (A)
                 (A) (A) (A) (A) (A) (A) (A) (A) (A) (A) (A) (A)
                 (A) (A) (A) (A) (A) (A) (A) (A) (A) (A) (A) (A)
                 (A) (A) (A) (A) (A) (A) (A) (A) (A) (A) (A) (A)
                 (A) (A) (A) (A) (A) (A) (A) (A) (A) (A) (A) (A)
                 (A) (A) (A) (A) (A) (A) (A) (A) (A) (A) (A) (A)
                 (A) (A) (A) (A) (A) (A) (A) (A) (A) (A) (A) (A)
                 (A) (A) (A) (A) (A) (A) (A) (A) (A) (A) (A) (A)
                 (A) (A) (A) (A) (A) (A) (A) (A) (A) (A) (A) (A)
                 (A) (A) (A) (A) (A) (A) (A) (A) (A) (A) (A) (A)
                 (A) (A) (A) (A) (A) (A) (A) (A) (A) (A) (A) (A)
                 (A) (A) (A) (A) (A) (A) (A) (A) (A) (A) (A) (A)
                 (A) (A) (A) (A) (A) (A) (A) (A) (A) (A) (A) (A)
                 (A) (A) (A) (A) (A) (A) (A) (A) (A) (A)
 The electronic state is 1-A.
 Alpha  occ. eigenvalues -- -485.32785 -63.33131 -57.15685 -57.15496 -57.15496
 Alpha  occ. eigenvalues --  -25.23918 -19.63658 -10.61415 -10.60783 -10.52064
 Alpha  occ. eigenvalues --  -10.52063 -10.51916 -10.51906 -10.51199  -9.03064
 Alpha  occ. eigenvalues --   -6.86686  -6.84477  -6.84477  -2.90391  -2.88576
 Alpha  occ. eigenvalues --   -2.88576  -2.87319  -2.87318  -1.34403  -1.18841
 Alpha  occ. eigenvalues --   -1.02829  -0.99519  -0.89052  -0.88055  -0.74898
 Alpha  occ. eigenvalues --   -0.73437  -0.71901  -0.65865  -0.60371  -0.58501
 Alpha  occ. eigenvalues --   -0.58044  -0.55575  -0.54723  -0.53685  -0.53144
 Alpha  occ. eigenvalues --   -0.52266  -0.49033  -0.47253  -0.47227  -0.44190
 Alpha  occ. eigenvalues --   -0.41745  -0.37676  -0.37674  -0.34801  -0.33625
 Alpha  occ. eigenvalues --   -0.32390
 Alpha virt. eigenvalues --   -0.00422  -0.00103   0.00806   0.01486   0.02205
 Alpha virt. eigenvalues --    0.02556   0.02768   0.03561   0.03609   0.04022
 Alpha virt. eigenvalues --    0.04475   0.05331   0.06267   0.06495   0.07218
 Alpha virt. eigenvalues --    0.07886   0.07939   0.09130   0.10203   0.10787
 Alpha virt. eigenvalues --    0.11845   0.11868   0.12477   0.13115   0.13418
 Alpha virt. eigenvalues --    0.13645   0.14324   0.14327   0.14956   0.15093
 Alpha virt. eigenvalues --    0.15632   0.16330   0.16573   0.17460   0.18152
 Alpha virt. eigenvalues --    0.18301   0.18712   0.20474   0.21120   0.21144
 Alpha virt. eigenvalues --    0.22208   0.22549   0.23437   0.24031   0.26562
 Alpha virt. eigenvalues --    0.26718   0.27002   0.29764   0.31443   0.32457
 Alpha virt. eigenvalues --    0.32893   0.33371   0.34992   0.36065   0.36723
 Alpha virt. eigenvalues --    0.37275   0.37965   0.39210   0.40223   0.40909
 Alpha virt. eigenvalues --    0.42475   0.43304   0.44433   0.44602   0.45807
 Alpha virt. eigenvalues --    0.46689   0.48912   0.51603   0.52230   0.54534
 Alpha virt. eigenvalues --    0.55207   0.56263   0.58147   0.58157   0.58626
 Alpha virt. eigenvalues --    0.59444   0.60490   0.60829   0.62004   0.63490
 Alpha virt. eigenvalues --    0.64061   0.65186   0.65461   0.66032   0.66530
 Alpha virt. eigenvalues --    0.68384   0.68941   0.70829   0.72216   0.74440
 Alpha virt. eigenvalues --    0.74878   0.75240   0.76649   0.81716   0.81721
 Alpha virt. eigenvalues --    0.82191   0.84795   0.85879   0.89390   0.90200
 Alpha virt. eigenvalues --    0.91660   0.94271   0.97241   1.00207   1.00790
 Alpha virt. eigenvalues --    1.01962   1.02444   1.04197   1.06108   1.08252
 Alpha virt. eigenvalues --    1.08271   1.10627   1.11845   1.13855   1.16355
 Alpha virt. eigenvalues --    1.16617   1.19279   1.23602   1.24213   1.27157
 Alpha virt. eigenvalues --    1.28287   1.34607   1.35355   1.41586   1.51507
 Alpha virt. eigenvalues --    1.52522   1.52655   1.53926   1.56519   1.60608
 Alpha virt. eigenvalues --    1.62261   1.63234   1.65033   1.65287   1.66910
 Alpha virt. eigenvalues --    1.67866   1.68357   1.70048   1.72614   1.72967
 Alpha virt. eigenvalues --    1.76756   1.76843   1.78884   1.82046   1.84858
 Alpha virt. eigenvalues --    1.85635   1.85918   1.90417   1.92915   1.94367
 Alpha virt. eigenvalues --    1.97352   1.98958   2.01298   2.03566   2.04456
 Alpha virt. eigenvalues --    2.04748   2.05839   2.06033   2.06468   2.12111
 Alpha virt. eigenvalues --    2.14866   2.16179   2.17486   2.17816   2.19935
 Alpha virt. eigenvalues --    2.21299   2.22024   2.36297   2.41177   2.46618
 Alpha virt. eigenvalues --    2.47980   2.50696   2.51323   2.57903   2.63384
 Alpha virt. eigenvalues --    2.67008   2.71164   2.71324   2.75144   2.76511
 Alpha virt. eigenvalues --    2.76815   2.78088   2.79375   2.80878   2.86618
 Alpha virt. eigenvalues --    2.86688   2.87944   2.88625   2.90387   2.96710
 Alpha virt. eigenvalues --    2.98215   2.98778   2.98888   3.03538   3.08017
 Alpha virt. eigenvalues --    3.12097   3.24061   3.27515   3.34659   3.39989
 Alpha virt. eigenvalues --    3.42275   3.55458   3.59987   3.62004   3.64422
 Alpha virt. eigenvalues --    3.75350   3.75433   3.87181   3.90113   3.98349
 Alpha virt. eigenvalues --    4.00241   4.06039   4.08711   4.14444   4.18782
 Alpha virt. eigenvalues --    4.19743   4.25312   4.26270   4.26473   4.26672
 Alpha virt. eigenvalues --    4.27369   4.28083   4.36588   4.89281   4.95932
 Alpha virt. eigenvalues --    4.96190   5.11443   5.23879   5.81210   6.52235
 Alpha virt. eigenvalues --    6.62049   6.89298   6.93818   7.62146   7.64230
 Alpha virt. eigenvalues --    7.81243  23.73185  24.17412  24.27121  24.31980
 Alpha virt. eigenvalues --   24.54639  24.57732  24.73143  48.47155  50.06810
 Alpha virt. eigenvalues --   66.97158 290.77703 290.79888 291.009971021.08489
          Condensed to atoms (all electrons):
               1          2          3          4          5          6
     1  C    9.833704  -0.798376  -0.944889  -0.260514  -0.943382  -0.791259
     2  C   -0.798376  12.486725   0.679374  -0.597981   0.182963  -6.239113
     3  C   -0.944889   0.679374   5.707767   0.577753  -0.374350   0.177947
     4  C   -0.260514  -0.597981   0.577753   6.276118   0.576601  -0.591975
     5  C   -0.943382   0.182963  -0.374350   0.576601   5.707940   0.674138
     6  C   -0.791259  -6.239113   0.177947  -0.591975   0.674138  12.484000
     7  F    0.571291  -0.276165  -0.055971   0.026446  -0.056198  -0.276795
     8  H   -0.194102   0.660708  -0.026413  -0.007253   0.025963  -0.121525
     9  H    0.026366  -0.091004   0.435944  -0.102907  -0.016833   0.082728
    10  H    0.023271  -0.020668  -0.056164   0.488211  -0.056264  -0.020453
    11  H    0.026376   0.082832  -0.016796  -0.102972   0.436094  -0.091239
    12  H   -0.193856  -0.121042   0.025863  -0.007216  -0.026538   0.660154
    13  O    0.039052  -0.012032  -0.000660  -0.001214  -0.000639  -0.012000
    14  C    0.001737  -0.002259  -0.000390   0.000425  -0.000410  -0.002457
    15  H   -0.000409   0.000046  -0.000009   0.000114  -0.000005   0.000078
    16  H   -0.000244   0.000210   0.000061  -0.000101   0.000056   0.000181
    17  H   -0.067405   0.011984   0.014517   0.006813   0.014704   0.012499
    18  Br   0.112460  -0.023004  -0.022585  -0.005113  -0.022689  -0.023290
               7          8          9         10         11         12
     1  C    0.571291  -0.194102   0.026366   0.023271   0.026376  -0.193856
     2  C   -0.276165   0.660708  -0.091004  -0.020668   0.082832  -0.121042
     3  C   -0.055971  -0.026413   0.435944  -0.056164  -0.016796   0.025863
     4  C    0.026446  -0.007253  -0.102907   0.488211  -0.102972  -0.007216
     5  C   -0.056198   0.025963  -0.016833  -0.056264   0.436094  -0.026538
     6  C   -0.276795  -0.121525   0.082728  -0.020453  -0.091239   0.660154
     7  F    9.309608  -0.029719  -0.000676   0.001335  -0.000671  -0.029670
     8  H   -0.029719   0.498204  -0.012729  -0.000026   0.003100  -0.000479
     9  H   -0.000676  -0.012729   0.486515  -0.012527   0.000157   0.003098
    10  H    0.001335  -0.000026  -0.012527   0.488396  -0.012534  -0.000020
    11  H   -0.000671   0.003100   0.000157  -0.012534   0.486524  -0.012738
    12  H   -0.029670  -0.000479   0.003098  -0.000020  -0.012738   0.498197
    13  O    0.008322   0.000600   0.000096  -0.000009   0.000097   0.000601
    14  C    0.004556  -0.000238  -0.000018   0.000007  -0.000019  -0.000236
    15  H   -0.001032  -0.000105  -0.000006   0.000002  -0.000006  -0.000106
    16  H   -0.000348   0.000039   0.000006  -0.000003   0.000006   0.000041
    17  H    0.009490   0.000569   0.000113  -0.000257   0.000117   0.000540
    18  Br  -0.010466  -0.000035  -0.000470   0.000476  -0.000472  -0.000012
              13         14         15         16         17         18
     1  C    0.039052   0.001737  -0.000409  -0.000244  -0.067405   0.112460
     2  C   -0.012032  -0.002259   0.000046   0.000210   0.011984  -0.023004
     3  C   -0.000660  -0.000390  -0.000009   0.000061   0.014517  -0.022585
     4  C   -0.001214   0.000425   0.000114  -0.000101   0.006813  -0.005113
     5  C   -0.000639  -0.000410  -0.000005   0.000056   0.014704  -0.022689
     6  C   -0.012000  -0.002457   0.000078   0.000181   0.012499  -0.023290
     7  F    0.008322   0.004556  -0.001032  -0.000348   0.009490  -0.010466
     8  H    0.000600  -0.000238  -0.000105   0.000039   0.000569  -0.000035
     9  H    0.000096  -0.000018  -0.000006   0.000006   0.000113  -0.000470
    10  H   -0.000009   0.000007   0.000002  -0.000003  -0.000257   0.000476
    11  H    0.000097  -0.000019  -0.000006   0.000006   0.000117  -0.000472
    12  H    0.000601  -0.000236  -0.000106   0.000041   0.000540  -0.000012
    13  O    8.182578   0.292070  -0.087872  -0.090912   0.008068  -0.006625
    14  C    0.292070   4.801691   0.407358   0.409496   0.001315  -0.000529
    15  H   -0.087872   0.407358   0.703854  -0.142184   0.001768  -0.000654
    16  H   -0.090912   0.409496  -0.142184   0.706032  -0.000066  -0.000036
    17  H    0.008068   0.001315   0.001768  -0.000066   0.946761   0.148406
    18  Br  -0.006625  -0.000529  -0.000654  -0.000036   0.148406  34.743042
 Mulliken charges:
               1
     1  C   -0.439820
     2  C    0.076804
     3  C   -0.120999
     4  C   -0.275234
     5  C   -0.121151
     6  C    0.078381
     7  F   -0.193336
     8  H    0.203440
     9  H    0.202147
    10  H    0.177228
    11  H    0.202145
    12  H    0.203420
    13  O   -0.319523
    14  C    0.087902
    15  H    0.119168
    16  H    0.117765
    17  H   -0.109934
    18  Br   0.111597
 Sum of Mulliken charges =  -0.00000
 Mulliken charges with hydrogens summed into heavy atoms:
               1
     1  C   -0.439820
     2  C    0.280244
     3  C    0.081149
     4  C   -0.098006
     5  C    0.080994
     6  C    0.281801
     7  F   -0.193336
    13  O   -0.319523
    14  C    0.324835
    18  Br   0.001663
 Electronic spatial extent (au):  <R**2>=           3573.2274
 Charge=             -0.0000 electrons
 Dipole moment (field-independent basis, Debye):
    X=             -0.1765    Y=              1.2717    Z=              0.0063  Tot=              1.2839
 Quadrupole moment (field-independent basis, Debye-Ang):
   XX=            -49.8096   YY=            -66.3349   ZZ=            -64.7617
   XY=            -15.0903   XZ=             -0.0096   YZ=              0.0248
 Traceless Quadrupole moment (field-independent basis, Debye-Ang):
   XX=             10.4925   YY=             -6.0329   ZZ=             -4.4596
   XY=            -15.0903   XZ=             -0.0096   YZ=              0.0248
 Octapole moment (field-independent basis, Debye-Ang**2):
  XXX=            -98.1046  YYY=              0.1562  ZZZ=             -0.0104  XYY=            -74.7007
  XXY=             29.7105  XXZ=              0.0410  XZZ=            -10.7482  YZZ=             -9.6555
  YYZ=              0.0529  XYZ=             -0.0175
 Hexadecapole moment (field-independent basis, Debye-Ang**3):
 XXXX=          -2384.9238 YYYY=          -1087.3363 ZZZZ=           -262.1772 XXXY=           -198.5684
 XXXZ=             -0.0585 YYYX=            -98.9243 YYYZ=              0.0744 ZZZX=              0.0008
 ZZZY=             -0.0034 XXYY=           -488.9597 XXZZ=           -464.7816 YYZZ=           -263.5977
 XXYZ=              0.1237 YYXZ=             -0.1373 ZZXY=             21.1480
 N-N= 6.695178525499D+02 E-N=-8.541610117333D+03  KE= 3.020212572807D+03
 D1PCM: PCM CHGder 1st derivatives, ID1Alg=3 FixD1E=F DoIter=F DoCFld=F I1PDM=0.
 Calling FoFJK, ICntrl=      2127 FMM=F ISym2X=0 I1Cent= 0 IOpClX= 0 NMat=1 NMatS=1 NMatT=0.
 ***** Axes restored to original set *****
 -------------------------------------------------------------------
 Center     Atomic                   Forces (Hartrees/Bohr)
 Number     Number              X              Y              Z
 -------------------------------------------------------------------
      1        6          -0.094455474    0.000105872   -0.054533889
      2        6          -0.052551155   -0.000038627    0.015465393
      3        6           0.002465760    0.000088139    0.037334308
      4        6           0.039664664   -0.000029041    0.022902418
      5        6           0.033566164    0.000088529   -0.016532421
      6        6          -0.012882599   -0.000038630   -0.053242154
      7        9           0.027838132    0.000206486    0.016072953
      8        1          -0.065592395   -0.000036268    0.035719183
      9        1          -0.001577017    0.000008450    0.073903877
     10        1           0.064338660   -0.000013061    0.037145376
     11        1           0.063213598    0.000008496   -0.038317230
     12        1          -0.001862523   -0.000036029   -0.074664599
     13        8           0.013637981    0.000374100    0.007862756
     14        6           0.062811910    0.000007405    0.036601347
     15        1          -0.039336707    0.071700220   -0.022875967
     16        1          -0.039277440   -0.071686560   -0.022841111
     17        1          -0.178481660   -1.169062104   -0.103020471
     18       35           0.178480100    1.168352622    0.103020231
 -------------------------------------------------------------------
 Cartesian Forces:  Max     1.169062104 RMS     0.231263511
 -----------------------------------------------------------------------------------------------
                       Internal Coordinate Forces (Hartree/Bohr or radian)
  Cent   Atom   N1       Length/X         N2         Alpha/Y        N3         Beta/Z          J
 -----------------------------------------------------------------------------------------------
      1  C 
      2  C        1   0.038473(     1)
      3  C        2   0.154907(     2)      1   0.167221(    18)
      4  C        3   0.222468(     3)      2   0.419471(    19)      1   0.000079(    34)     0
      5  C        4   0.183997(     4)      3   0.452561(    20)      2  -0.000076(    35)     0
      6  C        5   0.077964(     5)      4   0.252792(    21)      3  -0.000124(    36)     0
      7  F        1  -0.029643(     6)      2  -0.000009(    22)      3   0.000974(    37)     0
      8  H        2   0.074664(     7)      3   0.003520(    23)      4  -0.000059(    38)     0
      9  H        3   0.073904(     8)      4   0.002980(    24)      5   0.000014(    39)     0
     10  H        4   0.074292(     9)      5  -0.000001(    25)      6  -0.000021(    40)     0
     11  H        5   0.073903(    10)      6  -0.002980(    26)      1   0.000014(    41)     0
     12  H        6   0.074665(    11)      1  -0.003520(    27)      2  -0.000059(    42)     0
     13  O        7   0.002501(    12)      1   0.000007(    28)      3  -0.000004(    43)     0
     14  C       13   0.018243(    13)      1   0.000105(    29)      2  -0.000000(    44)     0
     15  H       14   0.084847(    14)      1   0.006724(    30)      2   0.000118(    45)     0
     16  H       14   0.084800(    15)      1   0.006624(    31)      2  -0.000117(    46)     0
     17  H        7  -0.000698(    16)      1   0.000643(    32)      2   0.000033(    47)     0
     18  Br      17   1.186388(    17)      7  -0.000111(    33)      1   0.000013(    48)     0
 -----------------------------------------------------------------------------------------------
 Internal  Forces:  Max     1.186387862 RMS     0.206073714

 GradGradGradGradGradGradGradGradGradGradGradGradGradGradGradGradGradGrad
 Berny optimization.
 Search for a local minimum.
 Step number   1 out of a maximum of   50
 All quantities printed in internal units (Hartrees-Bohrs-Radians)
 Second derivative matrix not updated -- first step.
 The second derivative matrix:
                          d1        d2        d3        d4        d5
           d1           0.95300
           d2          -0.05489   0.95300
           d3          -0.33597   0.33597   1.34386
           d4          -0.28107   0.05489   0.33597   0.95300
           d5           0.05489  -0.28107  -0.33597  -0.05489   0.95300
           d6           0.00000   0.00000  -0.00000  -0.00000  -0.00000
           d7          -0.00000  -0.00000  -0.00000   0.00000   0.00000
           d8           0.00000   0.00000   0.00000  -0.00000  -0.00000
           d9          -0.00000  -0.00000  -0.00000   0.00000   0.00000
           d10          0.00000  -0.00000  -0.00000   0.00000  -0.00000
           d11         -0.00000  -0.00000   0.00000  -0.00000   0.00000
           d12          0.00000   0.00000   0.00000  -0.00000  -0.00000
           d13          0.00000   0.00000   0.00000  -0.00000  -0.00000
           d14         -0.00000  -0.00000   0.00000   0.00000   0.00000
           d15          0.00000   0.00000   0.00000  -0.00000  -0.00000
           d16          0.00000   0.00000  -0.00000  -0.00000  -0.00000
           d17         -0.00000  -0.00000  -0.00000   0.00000   0.00000
                          d6        d7        d8        d9        d10
           d6           0.45621
           d7          -0.00000   0.47688
           d8          -0.00000   0.00000   0.47688
           d9           0.00000  -0.00000   0.00000   0.47688
           d10          0.00000  -0.00000   0.00000  -0.00000   0.47688
           d11          0.00000   0.00000  -0.00000   0.00000  -0.00000
           d12         -0.00000   0.00000  -0.00000   0.00000   0.00000
           d13         -0.00000   0.00000  -0.00000   0.00000   0.00000
           d14          0.00000   0.00000   0.00000  -0.00000  -0.00000
           d15          0.00000  -0.00000  -0.00000   0.00000   0.00000
           d16         -0.00000   0.00000  -0.00000   0.00000   0.00000
           d17         -0.00000   0.00000   0.00000  -0.00000  -0.00000
                          d11       d12       d13       d14       d15
           d11          0.47688
           d12          0.00000   0.02330
           d13          0.00000  -0.00000   1.04823
           d14          0.00000   0.00000   0.00000   0.47688
           d15         -0.00000   0.00000  -0.00000   0.00000   0.47688
           d16          0.00000   0.00000  -0.00000  -0.00000   0.00000
           d17          0.00000  -0.00000  -0.00000   0.00000  -0.00000
                          d16       d17
           d16          0.00939
           d17         -0.00000   1.79711
 ITU=  0
     Eigenvalues ---    0.00939   0.02330   0.45621   0.47688   0.47688
     Eigenvalues ---    0.47688   0.47688   0.47688   0.47688   0.47688
     Eigenvalues ---    0.67193   0.67193   0.67193   1.04823   1.12429
     Eigenvalues ---    1.79711   2.01579
 RFO step:  Lambda=-6.72103506D-01 EMin= 9.38727697D-03
 Linear search not attempted -- first point.
 Maximum step size (   0.300) exceeded in Quadratic search.
    -- Step size scaled by   0.544
 Variable       Old X    -DE/DX   Delta X   Delta X   Delta X     New X
                                 (Linear)    (Quad)   (Total)
    d1        2.45664   0.03847   0.00000   0.03423   0.03423   2.49087
    d2        2.45664   0.15491   0.00000   0.04760   0.04760   2.50424
    d3        2.45664   0.22247   0.00000   0.05632   0.05632   2.51297
    d4        2.45664   0.18400   0.00000   0.05588   0.05588   2.51253
    d5        2.45664   0.07796   0.00000   0.04672   0.04672   2.50337
    d6        2.64562  -0.02964   0.00000  -0.01430  -0.01430   2.63131
    d7        1.88973   0.07466   0.00000   0.03538   0.03538   1.92510
    d8        1.88973   0.07390   0.00000   0.03502   0.03502   1.92474
    d9        1.88973   0.07429   0.00000   0.03520   0.03520   1.92493
   d10        1.88973   0.07390   0.00000   0.03502   0.03502   1.92474
   d11        1.88973   0.07466   0.00000   0.03538   0.03538   1.92510
   d12        5.29123   0.00250   0.00000   0.00196   0.00196   5.29319
   d13        2.26767   0.01824   0.00000   0.00577   0.00577   2.27344
   d14        1.88973   0.08485   0.00000   0.04020   0.04020   1.92993
   d15        1.88973   0.08480   0.00000   0.04018   0.04018   1.92991
   d16        6.04712  -0.00070   0.00000  -0.00056  -0.00056   6.04657
   d17        1.70075   1.18639   0.00000   0.26157   0.26157   1.96232
         Item               Value     Threshold  Converged?
 Maximum Force            1.186388     0.000450     NO 
 RMS     Force            0.303472     0.000300     NO 
 Maximum Displacement     0.261568     0.001800     NO 
 RMS     Displacement     0.072761     0.001200     NO 
 Predicted change in Energy=-2.965413D-01
 GradGradGradGradGradGradGradGradGradGradGradGradGradGradGradGradGradGrad

 ---------------------------------------------------------------------------------------------------
                            Z-MATRIX (ANGSTROMS AND DEGREES)
   CD    Cent   Atom    N1       Length/X        N2       Alpha/Y        N3        Beta/Z          J
 ---------------------------------------------------------------------------------------------------
      1      1  C 
      2      2  C        1   1.318112(     1)
      3      3  C        2   1.325188(     2)      1  120.000(    18)
      4      4  C        3   1.329804(     3)      2  120.000(    19)      1    0.000(    34)      0
      5      5  C        4   1.329573(     4)      3  120.000(    20)      2    0.000(    35)      0
      6      6  C        5   1.324726(     5)      4  120.000(    21)      3    0.000(    36)      0
      7      7  F        1   1.392432(     6)      2  120.000(    22)      3  180.000(    37)      0
      8      8  H        2   1.018720(     7)      3  120.000(    23)      4  180.000(    38)      0
      9      9  H        3   1.018530(     8)      4  120.000(    24)      5  180.000(    39)      0
     10     10  H        4   1.018627(     9)      5  120.000(    25)      6  180.000(    40)      0
     11     11  H        5   1.018530(    10)      6  120.000(    26)      1  180.000(    41)      0
     12     12  H        6   1.018721(    11)      1  120.000(    27)      2  180.000(    42)      0
     13     13  O        7   2.801036(    12)      1  179.900(    28)      3  180.000(    43)      0
     14     14  C       13   1.203055(    13)      1  179.900(    29)      2  180.000(    44)      0
     15     15  H       14   1.021273(    14)      1  120.000(    30)      2   90.000(    45)      0
     16     16  H       14   1.021262(    15)      1  120.000(    31)      2  -90.000(    46)      0
     17     17  H        7   3.199705(    16)      1  100.000(    32)      2   90.000(    47)      0
     18     18  Br      17   1.038416(    17)      7  160.000(    33)      1    0.000(    48)      0
 ---------------------------------------------------------------------------------------------------
                         Z-Matrix orientation:                         
 ---------------------------------------------------------------------
 Center     Atomic      Atomic             Coordinates (Angstroms)
 Number     Number       Type             X           Y           Z
 ---------------------------------------------------------------------
      1          6           0        0.000000    0.000000    0.000000
      2          6           0        0.000000    0.000000    1.318112
      3          6           0        1.147647    0.000000    1.980706
      4          6           0        2.299291    0.000000    1.315804
      5          6           0        2.299291    0.000000   -0.013768
      6          6           0        1.152045    0.000000   -0.676131
      7          9           0       -1.205881   -0.000000   -0.696216
      8          1           0       -0.882238   -0.000000    1.827472
      9          1           0        1.147647   -0.000000    2.999236
     10          1           0        3.181448   -0.000000    1.825118
     11          1           0        3.181363   -0.000000   -0.523033
     12          1           0        1.144781   -0.000000   -1.694826
     13          8           0       -3.629201   -0.000000   -2.100965
     14          6           0       -4.669322   -0.000000   -2.705523
     15          1           0       -5.111149    0.884449   -2.961529
     16          1           0       -5.111144   -0.884439   -2.961526
     17          1           0       -1.687065    3.151094   -0.974027
     18         35           0       -1.530904    4.173734   -0.883868
 ---------------------------------------------------------------------
                    Distance matrix (angstroms):
                    1          2          3          4          5
     1  C    0.000000
     2  C    1.318112   0.000000
     3  C    2.289168   1.325188   0.000000
     4  C    2.649166   2.299292   1.329804   0.000000
     5  C    2.299332   2.657187   2.303088   1.329573   0.000000
     6  C    1.335799   2.303088   2.656841   2.298691   1.324726
     7  F    1.392432   2.347694   3.564408   4.041590   3.570989
     8  H    2.029285   1.018720   2.035660   3.222410   3.675907
     9  H    3.211310   2.035503   1.018530   2.039663   3.225598
    10  H    3.667787   3.221593   2.039743   1.018627   2.039535
    11  H    3.224071   3.675716   3.225634   2.039455   1.018530
    12  H    2.045228   3.223091   3.675533   3.224405   2.039325
    13  O    4.193466   4.986100   6.283178   6.842612   6.285174
    14  C    5.396520   6.163782   7.469797   8.045660   7.470415
    15  H    5.973001   6.724687   8.023744   8.601886   8.024098
    16  H    5.972994   6.724680   8.023737   8.601879   8.024092
    17  H    3.704634   4.246114   5.166762   5.573486   5.171317
    18  Br   4.532653   4.961092   5.727170   6.076924   5.731275
                    6          7          8          9         10
     6  C    0.000000
     7  F    2.358011   0.000000
     8  H    3.225885   2.544356   0.000000
     9  H    3.675370   4.381262   2.343813   0.000000
    10  H    3.220982   5.060215   4.063686   2.348382   0.000000
    11  H    2.035086   4.390661   4.694436   4.067233   2.348151
    12  H    1.018721   2.553984   4.063913   4.694063   4.066696
    13  O    4.989034   2.801036   4.793582   6.987870   7.861238
    14  C    6.164961   4.004090   5.906780   8.147478   9.064287
    15  H    6.725540   4.600544   6.449843   8.688239   9.615685
    16  H    6.725533   4.600537   6.449836   8.688232   9.615678
    17  H    4.251903   3.199705   4.292498   5.809630   6.439489
    18  Br   4.966027   4.190574   5.019182   6.298665   6.853095
                   11         12         13         14         15
    11  H    0.000000
    12  H    2.349631   0.000000
    13  O    6.990970   4.791227   0.000000
    14  C    8.148406   5.901296   1.203055   0.000000
    15  H    8.688744   6.443868   1.928468   1.021273   0.000000
    16  H    8.688737   6.443862   1.928458   1.021262   1.768887
    17  H    5.816733   4.297475   3.869274   4.671331   4.562039
    18  Br   6.305213   5.023644   4.827446   5.530656   5.287176
                   16         17         18
    16  H    0.000000
    17  H    5.653317   0.000000
    18  Br   6.536046   1.038416   0.000000
 Stoichiometry    C7H8BrFO
 Framework group  C1[X(C7H8BrFO)]
 Deg. of freedom    48
 Full point group                 C1      NOp   1
 Largest Abelian subgroup         C1      NOp   1
 Largest concise Abelian subgroup C1      NOp   1
                         Standard orientation:                         
 ---------------------------------------------------------------------
 Center     Atomic      Atomic             Coordinates (Angstroms)
 Number     Number       Type             X           Y           Z
 ---------------------------------------------------------------------
      1          6           0        1.559905    0.788268   -0.007445
      2          6           0        2.129047    0.457073   -1.149289
      3          6           0        3.276393   -0.206043   -1.149946
      4          6           0        3.853544   -0.537335    0.001366
      5          6           0        3.279453   -0.203261    1.153138
      6          6           0        2.132508    0.459623    1.153795
      7          9           0        0.354341    1.485031   -0.006755
      8          1           0        1.686910    0.710866   -2.031273
      9          1           0        3.716180   -0.461963   -2.032270
     10          1           0        4.735469   -1.047049    0.000861
     11          1           0        3.721507   -0.457006    2.034957
     12          1           0        1.687199    0.718728    2.032633
     13          8           0       -2.070781    2.886655   -0.000477
     14          6           0       -3.112374    3.488657    0.003622
     15          1           0       -3.997052    2.978424    0.006182
     16          1           0       -3.111910    4.509919    0.003156
     17          1           0       -1.703499   -0.965147   -0.001089
     18         35           0       -2.059100   -1.940777    0.000571
 ---------------------------------------------------------------------
 Rotational constants (GHZ):           0.6842268           0.3991323           0.2740390
 Standard basis: 6-311++G(d,p) (5D, 7F)
 There are   314 symmetry adapted cartesian basis functions of A   symmetry.
 There are   302 symmetry adapted basis functions of A   symmetry.
   302 basis functions,   490 primitive gaussians,   314 cartesian basis functions
    51 alpha electrons       51 beta electrons
       nuclear repulsion energy       656.0417113661 Hartrees.
 NAtoms=   18 NActive=   18 NUniq=   18 SFac= 1.00D+00 NAtFMM=   60 NAOKFM=F Big=F
 Integral buffers will be    131072 words long.
 Raffenetti 2 integral format.
 Two-electron integral symmetry is turned on.
 ------------------------------------------------------------------------------
 Polarizable Continuum Model (PCM)
 =================================
 Model                : PCM.
 Atomic radii         : UFF (Universal Force Field).
 Polarization charges : Total charges.
 Charge compensation  : None.
 Solution method      : On-the-fly selection.
 Cavity type          : Scaled VdW (van der Waals Surface) (Alpha=1.100).
 Cavity algorithm     : GePol (No added spheres)
                        Default sphere list used, NSphG=   18.
                        Lebedev-Laikov grids with approx.  5.0 points / Ang**2.
                        Smoothing algorithm: York/Karplus (Gamma=1.0000).
                        Polarization charges: spherical gaussians, with
                                              point-specific exponents (IZeta= 3).
                        Self-potential: point-specific (ISelfS= 7).
                        Self-field    : sphere-specific E.n sum rule (ISelfD= 2).
 1st derivatives      : Analytical E(r).r(x)/FMM algorithm (CHGder, D1EAlg=3).
                        Cavity 1st derivative terms included.
 Solvent              : Chloroform, Eps=   4.711300 Eps(inf)=   2.090627
 ------------------------------------------------------------------------------
 Spheres list:
 ISph  on   Nord     Re0    Alpha      Xe            Ye            Ze
    1   C      1    1.9255  1.100      1.559905      0.788268     -0.007445
    2   C      2    1.9255  1.100      2.129047      0.457073     -1.149289
    3   C      3    1.9255  1.100      3.276393     -0.206043     -1.149946
    4   C      4    1.9255  1.100      3.853544     -0.537335      0.001366
    5   C      5    1.9255  1.100      3.279453     -0.203261      1.153138
    6   C      6    1.9255  1.100      2.132508      0.459623      1.153795
    7   F      7    1.6820  1.100      0.354341      1.485031     -0.006755
    8   H      8    1.4430  1.100      1.686910      0.710866     -2.031273
    9   H      9    1.4430  1.100      3.716180     -0.461963     -2.032270
   10   H     10    1.4430  1.100      4.735469     -1.047049      0.000861
   11   H     11    1.4430  1.100      3.721507     -0.457006      2.034957
   12   H     12    1.4430  1.100      1.687199      0.718728      2.032633
   13   O     13    1.7500  1.100     -2.070781      2.886655     -0.000477
   14   C     14    1.9255  1.100     -3.112374      3.488657      0.003622
   15   H     15    1.4430  1.100     -3.997052      2.978424      0.006182
   16   H     16    1.4430  1.100     -3.111910      4.509919      0.003156
   17   H     17    1.4430  1.100     -1.703499     -0.965147     -0.001089
   18  Br     18    2.0945  1.100     -2.059100     -1.940777      0.000571
 ------------------------------------------------------------------------------
 One-electron integrals computed using PRISM.
 NBasis=   302 RedAO= T EigKep=  5.24D-06  NBF=   302
 NBsUse=   301 1.00D-06 EigRej=  7.15D-07 NBFU=   301
 Initial guess from the checkpoint file:  "model_H1.chk"
 B after Tr=     0.000000    0.000000   -0.000000
         Rot=    0.999878    0.000002   -0.000123    0.015589 Ang=   1.79 deg.
 ExpMin= 3.50D-02 ExpMax= 4.40D+05 ExpMxC= 1.51D+04 IAcc=3 IRadAn=         5 AccDes= 0.00D+00
 Harris functional with IExCor= 1009 and IRadAn=       5 diagonalized for initial guess.
 HarFok:  IExCor= 1009 AccDes= 0.00D+00 IRadAn=         5 IDoV= 1 UseB2=F ITyADJ=14
 ICtDFT=  3500011 ScaDFX=  1.000000  1.000000  1.000000  1.000000
 FoFCou: FMM=F IPFlag=           0 FMFlag=      100000 FMFlg1=           0
         NFxFlg=           0 DoJE=T BraDBF=F KetDBF=T FulRan=T
         wScrn=  0.000000 ICntrl=       500 IOpCl=  0 I1Cent=   200000004 NGrid=           0
         NMat0=    1 NMatS0=      1 NMatT0=    0 NMatD0=    1 NMtDS0=    0 NMtDT0=    0
 Petite list used in FoFCou.
 Requested convergence on RMS density matrix=1.00D-08 within 128 cycles.
 Requested convergence on MAX density matrix=1.00D-06.
 Requested convergence on             energy=1.00D-06.
 No special actions if energy rises.
 Inv3:  Mode=1 IEnd=    12533808.
 Iteration    1 A*A^-1 deviation from unit magnitude is 6.33D-15 for   2041.
 Iteration    1 A*A^-1 deviation from orthogonality  is 1.99D-15 for   1302   1119.
 Iteration    1 A^-1*A deviation from unit magnitude is 6.11D-15 for   2041.
 Iteration    1 A^-1*A deviation from orthogonality  is 4.23D-15 for    955    903.
 Error on total polarization charges =  0.01234
 SCF Done:  E(RM062X) =  -3020.50773022     A.U. after   14 cycles
            NFock= 14  Conv=0.38D-08     -V/T= 2.0006
 D1PCM: PCM CHGder 1st derivatives, ID1Alg=3 FixD1E=F DoIter=F DoCFld=F I1PDM=0.
 Calling FoFJK, ICntrl=      2127 FMM=F ISym2X=0 I1Cent= 0 IOpClX= 0 NMat=1 NMatS=1 NMatT=0.
 ***** Axes restored to original set *****
 -------------------------------------------------------------------
 Center     Atomic                   Forces (Hartrees/Bohr)
 Number     Number              X              Y              Z
 -------------------------------------------------------------------
      1        6          -0.055230769    0.000112312   -0.051138678
      2        6          -0.035180055   -0.000034682    0.013838582
      3        6           0.009291150    0.000090244    0.016687623
      4        6           0.018129487   -0.000051929    0.012887327
      5        6           0.017062161    0.000090101   -0.004064738
      6        6          -0.019830997   -0.000030794   -0.026680670
      7        9           0.025811915    0.000221507    0.015035965
      8        1          -0.048463930   -0.000032885    0.025872764
      9        1          -0.001242904    0.000002945    0.054299143
     10        1           0.047203712   -0.000002533    0.027292224
     11        1           0.046459119    0.000004201   -0.028294500
     12        1          -0.002160519   -0.000031896   -0.054654560
     13        8           0.006958642    0.000404600    0.003971986
     14        6           0.051156760    0.000042036    0.029854524
     15        1          -0.030023952    0.052451127   -0.017477870
     16        1          -0.029966656   -0.052476359   -0.017443539
     17        1          -0.084948060   -0.554538421   -0.049060644
     18       35           0.084974895    0.553780426    0.049075062
 -------------------------------------------------------------------
 Cartesian Forces:  Max     0.554538421 RMS     0.111394864
 -----------------------------------------------------------------------------------------------
                       Internal Coordinate Forces (Hartree/Bohr or radian)
  Cent   Atom   N1       Length/X         N2         Alpha/Y        N3         Beta/Z          J
 -----------------------------------------------------------------------------------------------
      1  C 
      2  C        1   0.036019(     1)
      3  C        2   0.097078(     2)      1   0.076475(    18)
      4  C        3   0.129294(     3)      2   0.223997(    19)      1   0.000084(    34)     0
      5  C        4   0.114859(     4)      3   0.250716(    20)      2  -0.000053(    35)     0
      6  C        5   0.060887(     5)      4   0.148024(    21)      3  -0.000124(    36)     0
      7  F        1  -0.027731(     6)      2  -0.000231(    22)      3   0.001844(    37)     0
      8  H        2   0.054907(     7)      3   0.003514(    23)      4  -0.000055(    38)     0
      9  H        3   0.054299(     8)      4   0.002392(    24)      5   0.000005(    39)     0
     10  H        4   0.054526(     9)      5   0.000065(    25)      6  -0.000004(    40)     0
     11  H        5   0.054382(    10)      6  -0.002452(    26)      1   0.000007(    41)     0
     12  H        6   0.054669(    11)      1  -0.003409(    27)      2  -0.000053(    42)     0
     13  O        7   0.002171(    12)      1  -0.000037(    28)      3  -0.000004(    43)     0
     14  C       13   0.010184(    13)      1   0.000103(    29)      2  -0.000000(    44)     0
     15  H       14   0.062794(    14)      1   0.007451(    30)      2   0.000117(    45)     0
     16  H       14   0.062783(    15)      1   0.007315(    31)      2  -0.000116(    46)     0
     17  H        7  -0.000752(    16)      1  -0.000316(    32)      2  -0.000019(    47)     0
     18  Br      17   0.562407(    17)      7  -0.000931(    33)      1  -0.000009(    48)     0
 -----------------------------------------------------------------------------------------------
 Internal  Forces:  Max     0.562406996 RMS     0.104605081

 GradGradGradGradGradGradGradGradGradGradGradGradGradGradGradGradGradGrad
 Berny optimization.
 Search for a local minimum.
 Step number   2 out of a maximum of   50
 All quantities printed in internal units (Hartrees-Bohrs-Radians)
 Update second derivatives using D2CorN and points    1    2
 DE= -2.66D-01 DEPred=-2.97D-01 R= 8.97D-01
 TightC=F SS=  1.41D+00  RLast= 3.00D-01 DXNew= 5.0454D-01 9.0000D-01
 Trust test= 8.97D-01 RLast= 3.00D-01 DXMaxT set to 5.05D-01
 The second derivative matrix:
                          d1        d2        d3        d4        d5
           d1           0.95472
           d2          -0.05266   0.95591
           d3          -0.33267   0.34031   1.35007
           d4          -0.27843   0.05833   0.34109   0.95706
           d5           0.05721  -0.27805  -0.33150  -0.05132   0.95614
           d6           0.00052   0.00078   0.00066   0.00091   0.00072
           d7           0.00144   0.00184   0.00285   0.00218   0.00194
           d8           0.00143   0.00184   0.00284   0.00217   0.00193
           d9           0.00145   0.00186   0.00287   0.00220   0.00195
           d10          0.00141   0.00181   0.00281   0.00215   0.00191
           d11          0.00148   0.00191   0.00293   0.00225   0.00200
           d12          0.00010   0.00013   0.00020   0.00016   0.00014
           d13          0.00053   0.00071   0.00095   0.00083   0.00071
           d14          0.00156   0.00199   0.00312   0.00235   0.00210
           d15          0.00155   0.00198   0.00311   0.00234   0.00209
           d16         -0.00000  -0.00000  -0.00001  -0.00000  -0.00000
           d17          0.03583   0.04868   0.06257   0.05727   0.04873
                          d6        d7        d8        d9        d10
           d6           0.45547
           d7           0.00068   0.47802
           d8           0.00067   0.00113   0.47801
           d9           0.00067   0.00115   0.00115   0.47805
           d10          0.00067   0.00112   0.00111   0.00113   0.47798
           d11          0.00066   0.00118   0.00118   0.00120   0.00116
           d12          0.00003   0.00009   0.00009   0.00009   0.00009
           d13         -0.00001   0.00049   0.00048   0.00049   0.00048
           d14          0.00080   0.00121   0.00121   0.00123   0.00119
           d15          0.00080   0.00121   0.00120   0.00122   0.00119
           d16         -0.00002   0.00000   0.00000   0.00000   0.00000
           d17         -0.00553   0.03444   0.03416   0.03443   0.03404
                          d11       d12       d13       d14       d15
           d11          0.47811
           d12          0.00009   0.02331
           d13          0.00049   0.00003   1.04836
           d14          0.00126   0.00009   0.00054   0.47817
           d15          0.00126   0.00009   0.00054   0.00128   0.47816
           d16          0.00000  -0.00000  -0.00000   0.00000   0.00000
           d17          0.03479   0.00209   0.00785   0.03856   0.03851
                          d16       d17
           d16          0.00939
           d17         -0.00039   2.24443
 ITU=  1  0
 Linear search step of   0.600 exceeds DXMaxT=   0.505 but not scaled.
 Quartic linear search produced a step of  2.00000.
 Variable       Old X    -DE/DX   Delta X   Delta X   Delta X     New X
                                 (Linear)    (Quad)   (Total)
    d1        2.49087   0.03602   0.06845   0.00000   0.06845   2.55932
    d2        2.50424   0.09708   0.09520   0.00000   0.09520   2.59944
    d3        2.51297   0.12929   0.11264   0.00000   0.11264   2.62561
    d4        2.51253   0.11486   0.11177   0.00000   0.11177   2.62430
    d5        2.50337   0.06089   0.09345   0.00000   0.09345   2.59682
    d6        2.63131  -0.02773  -0.02860   0.00000  -0.02860   2.60271
    d7        1.92510   0.05491   0.07075   0.00000   0.07075   1.99586
    d8        1.92474   0.05430   0.07003   0.00000   0.07003   1.99477
    d9        1.92493   0.05453   0.07040   0.00000   0.07040   1.99533
   d10        1.92474   0.05438   0.07003   0.00000   0.07003   1.99477
   d11        1.92510   0.05467   0.07075   0.00000   0.07075   1.99586
   d12        5.29319   0.00217   0.00392   0.00000   0.00392   5.29711
   d13        2.27344   0.01018   0.01155   0.00000   0.01155   2.28499
   d14        1.92993   0.06279   0.08040   0.00000   0.08040   2.01033
   d15        1.92991   0.06278   0.08036   0.00000   0.08036   2.01026
   d16        6.04657  -0.00075  -0.00112   0.00000  -0.00112   6.04545
   d17        1.96232   0.56241   0.52314   0.00000   0.52314   2.48546
         Item               Value     Threshold  Converged?
 Maximum Force            0.562407     0.000450     NO 
 RMS     Force            0.150350     0.000300     NO 
 Maximum Displacement     0.523136     0.001800     NO 
 RMS     Displacement     0.145521     0.001200     NO 
 Predicted change in Energy=-6.676418D-03
 GradGradGradGradGradGradGradGradGradGradGradGradGradGradGradGradGradGrad

 ---------------------------------------------------------------------------------------------------
                            Z-MATRIX (ANGSTROMS AND DEGREES)
   CD    Cent   Atom    N1       Length/X        N2       Alpha/Y        N3        Beta/Z          J
 ---------------------------------------------------------------------------------------------------
      1      1  C 
      2      2  C        1   1.354336(     1)
      3      3  C        2   1.375565(     2)      1  120.000(    18)
      4      4  C        3   1.389411(     3)      2  120.000(    19)      1    0.000(    34)      0
      5      5  C        4   1.388718(     4)      3  120.000(    20)      2    0.000(    35)      0
      6      6  C        5   1.374177(     5)      4  120.000(    21)      3    0.000(    36)      0
      7      7  F        1   1.377295(     6)      2  120.000(    22)      3  180.000(    37)      0
      8      8  H        2   1.056161(     7)      3  120.000(    23)      4  180.000(    38)      0
      9      9  H        3   1.055589(     8)      4  120.000(    24)      5  180.000(    39)      0
     10     10  H        4   1.055881(     9)      5  120.000(    25)      6  180.000(    40)      0
     11     11  H        5   1.055589(    10)      6  120.000(    26)      1  180.000(    41)      0
     12     12  H        6   1.056162(    11)      1  120.000(    27)      2  180.000(    42)      0
     13     13  O        7   2.803108(    12)      1  179.900(    28)      3  180.000(    43)      0
     14     14  C       13   1.209165(    13)      1  179.900(    29)      2  180.000(    44)      0
     15     15  H       14   1.063820(    14)      1  120.000(    30)      2   90.000(    45)      0
     16     16  H       14   1.063786(    15)      1  120.000(    31)      2  -90.000(    46)      0
     17     17  H        7   3.199114(    16)      1  100.000(    32)      2   90.000(    47)      0
     18     18  Br      17   1.315247(    17)      7  160.000(    33)      1    0.000(    48)      0
 ---------------------------------------------------------------------------------------------------
                         Z-Matrix orientation:                         
 ---------------------------------------------------------------------
 Center     Atomic      Atomic             Coordinates (Angstroms)
 Number     Number       Type             X           Y           Z
 ---------------------------------------------------------------------
      1          6           0        0.000000    0.000000    0.000000
      2          6           0        0.000000    0.000000    1.354336
      3          6           0        1.191274    0.000000    2.042119
      4          6           0        2.394540    0.000000    1.347413
      5          6           0        2.394540    0.000000   -0.041305
      6          6           0        1.204467    0.000000   -0.728394
      7          9           0       -1.192772   -0.000000   -0.688647
      8          1           0       -0.914663   -0.000000    1.882417
      9          1           0        1.191274   -0.000000    3.097708
     10          1           0        3.308960   -0.000000    1.875354
     11          1           0        3.308707   -0.000000   -0.569100
     12          1           0        1.183027   -0.000000   -1.784338
     13          8           0       -3.617885   -0.000000   -2.094436
     14          6           0       -4.663285   -0.000000   -2.702069
     15          1           0       -5.123517    0.921295   -2.968743
     16          1           0       -5.123502   -0.921265   -2.968735
     17          1           0       -1.673867    3.150513   -0.966407
     18         35           0       -1.476075    4.445778   -0.852212
 ---------------------------------------------------------------------
                    Distance matrix (angstroms):
                    1          2          3          4          5
     1  C    0.000000
     2  C    1.354336   0.000000
     3  C    2.364188   1.375565   0.000000
     4  C    2.747607   2.394550   1.389411   0.000000
     5  C    2.394896   2.771577   2.405931   1.388718   0.000000
     6  C    1.407586   2.405932   2.770544   2.392749   1.374177
     7  F    1.377295   2.365690   3.625019   4.124845   3.645252
     8  H    2.092869   1.056161   2.111984   3.352171   3.827731
     9  H    3.318875   2.111511   1.055589   2.124001   3.361734
    10  H    3.803441   3.349727   2.124242   1.055881   2.123616
    11  H    3.357293   3.827159   3.361842   2.123375   1.055589
    12  H    2.140891   3.354226   3.826465   3.357920   2.122716
    13  O    4.180401   4.998312   6.343429   6.927884   6.353314
    14  C    5.389564   6.180668   7.535462   8.137026   7.542716
    15  H    5.992716   6.766700   8.113822   8.717750   8.120336
    16  H    5.992694   6.766679   8.113802   8.717730   8.120315
    17  H    3.696147   4.255985   5.214019   5.641935   5.228143
    18  Br   4.761303   5.178088   5.937748   6.291658   5.950141
                    6          7          8          9         10
     6  C    0.000000
     7  F    2.397569   0.000000
     8  H    3.362595   2.586062   0.000000
     9  H    3.826125   4.474390   2.431440   0.000000
    10  H    3.347893   5.180703   4.223628   2.445147   0.000000
    11  H    2.110260   4.503066   4.883317   4.234265   2.444453
    12  H    1.056162   2.616288   4.224381   4.882053   4.232367
    13  O    5.012101   2.803108   4.808614   7.077173   7.983759
    14  C    6.190793   4.012272   5.921966   8.240951   9.192904
    15  H    6.775790   4.636634   6.488220   8.804953   9.768353
    16  H    6.775769   4.636611   6.488199   8.804933   9.768333
    17  H    4.274013   3.199114   4.314849   5.886578   6.544455
    18  Br   5.192840   4.457797   5.249602   6.517788   7.078214
                   11         12         13         14         15
    11  H    0.000000
    12  H    2.448533   0.000000
    13  O    7.092554   4.810917   0.000000
    14  C    8.252406   5.917905   1.209165   0.000000
    15  H    8.815297   6.482600   1.969804   1.063820   0.000000
    16  H    8.815277   6.482580   1.969774   1.063786   1.842561
    17  H    5.908436   4.330887   3.870063   4.677058   4.569337
    18  Br   6.537525   5.263519   5.088754   5.774532   5.495954
                   16         17         18
    16  H    0.000000
    17  H    5.699883   0.000000
    18  Br   6.825580   1.315247   0.000000
 Stoichiometry    C7H8BrFO
 Framework group  C1[X(C7H8BrFO)]
 Deg. of freedom    48
 Full point group                 C1      NOp   1
 Largest Abelian subgroup         C1      NOp   1
 Largest concise Abelian subgroup C1      NOp   1
                         Standard orientation:                         
 ---------------------------------------------------------------------
 Center     Atomic      Atomic             Coordinates (Angstroms)
 Number     Number       Type             X           Y           Z
 ---------------------------------------------------------------------
      1          6           0        1.636936    0.758779   -0.019773
      2          6           0        2.187638    0.372177   -1.195142
      3          6           0        3.317981   -0.411710   -1.200208
      4          6           0        3.894738   -0.806872    0.000485
      5          6           0        3.330055   -0.410455    1.205693
      6          6           0        2.200852    0.372641    1.210753
      7          9           0        0.505171    1.543651   -0.014701
      8          1           0        1.749216    0.672559   -2.107849
      9          1           0        3.747207   -0.713033   -2.116307
     10          1           0        4.762387   -1.408581   -0.003403
     11          1           0        3.768239   -0.710674    2.117905
     12          1           0        1.756173    0.684640    2.116509
     13          8           0       -1.798200    3.141044    0.000513
     14          6           0       -2.791785    3.830104    0.008492
     15          1           0       -3.753873    3.376157    0.014311
     16          1           0       -2.703865    4.890250    0.008252
     17          1           0       -1.746654   -0.728674   -0.002296
     18         35           0       -2.297093   -1.923195    0.001123
 ---------------------------------------------------------------------
 Rotational constants (GHZ):           0.6250048           0.3779284           0.2564285
 Standard basis: 6-311++G(d,p) (5D, 7F)
 There are   314 symmetry adapted cartesian basis functions of A   symmetry.
 There are   302 symmetry adapted basis functions of A   symmetry.
   302 basis functions,   490 primitive gaussians,   314 cartesian basis functions
    51 alpha electrons       51 beta electrons
       nuclear repulsion energy       632.0264940170 Hartrees.
 NAtoms=   18 NActive=   18 NUniq=   18 SFac= 1.00D+00 NAtFMM=   60 NAOKFM=F Big=F
 Integral buffers will be    131072 words long.
 Raffenetti 2 integral format.
 Two-electron integral symmetry is turned on.
 ------------------------------------------------------------------------------
 Polarizable Continuum Model (PCM)
 =================================
 Model                : PCM.
 Atomic radii         : UFF (Universal Force Field).
 Polarization charges : Total charges.
 Charge compensation  : None.
 Solution method      : On-the-fly selection.
 Cavity type          : Scaled VdW (van der Waals Surface) (Alpha=1.100).
 Cavity algorithm     : GePol (No added spheres)
                        Default sphere list used, NSphG=   18.
                        Lebedev-Laikov grids with approx.  5.0 points / Ang**2.
                        Smoothing algorithm: York/Karplus (Gamma=1.0000).
                        Polarization charges: spherical gaussians, with
                                              point-specific exponents (IZeta= 3).
                        Self-potential: point-specific (ISelfS= 7).
                        Self-field    : sphere-specific E.n sum rule (ISelfD= 2).
 1st derivatives      : Analytical E(r).r(x)/FMM algorithm (CHGder, D1EAlg=3).
                        Cavity 1st derivative terms included.
 Solvent              : Chloroform, Eps=   4.711300 Eps(inf)=   2.090627
 ------------------------------------------------------------------------------
 Spheres list:
 ISph  on   Nord     Re0    Alpha      Xe            Ye            Ze
    1   C      1    1.9255  1.100      1.636936      0.758779     -0.019773
    2   C      2    1.9255  1.100      2.187638      0.372177     -1.195142
    3   C      3    1.9255  1.100      3.317981     -0.411710     -1.200208
    4   C      4    1.9255  1.100      3.894738     -0.806872      0.000485
    5   C      5    1.9255  1.100      3.330055     -0.410455      1.205693
    6   C      6    1.9255  1.100      2.200852      0.372641      1.210753
    7   F      7    1.6820  1.100      0.505171      1.543651     -0.014701
    8   H      8    1.4430  1.100      1.749216      0.672559     -2.107849
    9   H      9    1.4430  1.100      3.747207     -0.713033     -2.116307
   10   H     10    1.4430  1.100      4.762387     -1.408581     -0.003403
   11   H     11    1.4430  1.100      3.768239     -0.710674      2.117905
   12   H     12    1.4430  1.100      1.756173      0.684640      2.116509
   13   O     13    1.7500  1.100     -1.798200      3.141044      0.000513
   14   C     14    1.9255  1.100     -2.791785      3.830104      0.008492
   15   H     15    1.4430  1.100     -3.753873      3.376157      0.014311
   16   H     16    1.4430  1.100     -2.703865      4.890250      0.008252
   17   H     17    1.4430  1.100     -1.746654     -0.728674     -0.002296
   18  Br     18    2.0945  1.100     -2.297093     -1.923195      0.001123
 ------------------------------------------------------------------------------
 One-electron integrals computed using PRISM.
 NBasis=   302 RedAO= T EigKep=  1.03D-06  NBF=   302
 NBsUse=   302 1.00D-06 EigRej= -1.00D+00 NBFU=   302
 Initial guess from the checkpoint file:  "model_H1.chk"
 B after Tr=    -0.000000   -0.000000   -0.000000
         Rot=    0.999362   -0.000047   -0.000256    0.035726 Ang=  -4.09 deg.
 ExpMin= 3.50D-02 ExpMax= 4.40D+05 ExpMxC= 1.51D+04 IAcc=3 IRadAn=         5 AccDes= 0.00D+00
 Harris functional with IExCor= 1009 and IRadAn=       5 diagonalized for initial guess.
 HarFok:  IExCor= 1009 AccDes= 0.00D+00 IRadAn=         5 IDoV= 1 UseB2=F ITyADJ=14
 ICtDFT=  3500011 ScaDFX=  1.000000  1.000000  1.000000  1.000000
 FoFCou: FMM=F IPFlag=           0 FMFlag=      100000 FMFlg1=           0
         NFxFlg=           0 DoJE=T BraDBF=F KetDBF=T FulRan=T
         wScrn=  0.000000 ICntrl=       500 IOpCl=  0 I1Cent=   200000004 NGrid=           0
[...]
     13          8           0       -4.306109   -0.000000   -2.493437
     14          6           0       -5.346120   -0.000000   -3.098078
     15          1           0       -5.822618    0.953885   -3.374209
     16          1           0       -5.822632   -0.953913   -3.374217
     17          1           0       -1.489911    2.090388   -0.860200
     18         35           0       -1.275581    3.493951   -0.736457
 ---------------------------------------------------------------------
                    Distance matrix (angstroms):
                    1          2          3          4          5
     1  C    0.000000
     2  C    1.379218   0.000000
     3  C    2.392809   1.383759   0.000000
     4  C    2.767259   2.400208   1.387762   0.000000
     5  C    2.400275   2.777285   2.410163   1.395251   0.000000
     6  C    1.388666   2.410231   2.788395   2.419456   1.398495
     7  F    1.351809   2.365179   3.627467   4.119064   3.631002
     8  H    2.138232   1.083906   2.142313   3.382916   3.861186
     9  H    3.373838   2.141346   1.082740   2.144947   3.391930
    10  H    3.850313   3.381481   2.145209   1.083057   2.151946
    11  H    3.384377   3.859954   3.390672   2.151629   1.082674
    12  H    2.146143   3.387351   3.871500   3.407952   2.166573
    13  O    4.975922   5.791375   7.150822   7.743167   7.148587
    14  C    6.178922   6.973319   8.339707   8.946164   8.336201
    15  H    6.796915   7.576796   8.936192   9.544674   8.932450
    16  H    6.796935   7.576816   8.936211   9.544693   8.932469
    17  H    2.707305   3.406546   4.493226   4.950634   4.495774
    18  Br   3.791724   4.279122   5.119619   5.494246   5.122036
                    6          7          8          9         10
     6  C    0.000000
     7  F    2.360139   0.000000
     8  H    3.389516   2.607418   0.000000
     9  H    3.871131   4.503268   2.467082   0.000000
    10  H    3.401061   5.202120   4.276853   2.470661   0.000000
    11  H    2.154550   4.510037   4.943856   4.285465   2.478116
    12  H    1.083203   2.595209   4.276517   4.954214   4.305756
    13  O    5.775099   3.624115   5.552321   7.886127   8.826224
    14  C    6.955355   4.827116   6.679693   9.050790  10.029220
    15  H    7.558637   5.461783   7.266615   9.634291  10.622860
    16  H    7.558656   5.461804   7.266634   9.634309  10.622878
    17  H    3.401046   2.122636   3.522725   5.263941   5.950004
    18  Br   4.275815   3.496049   4.402747   5.784680   6.367450
                   11         12         13         14         15
    11  H    0.000000
    12  H    2.499355   0.000000
    13  O    7.884822   5.518106   0.000000
    14  C    9.047432   6.642424   1.203002   0.000000
    15  H    9.630525   7.229102   1.996361   1.101452   0.000000
    16  H    9.630544   7.229121   1.996388   1.101484   1.907798
    17  H    5.269469   3.509916   3.868870   4.924243   5.136558
    18  Br   5.789872   4.394534   4.947602   5.861248   5.838254
                   16         17         18
    16  H    0.000000
    17  H    5.861785   0.000000
    18  Br   6.885996   1.425215   0.000000
 Stoichiometry    C7H8BrFO
 Framework group  C1[X(C7H8BrFO)]
 Deg. of freedom    48
 Full point group                 C1      NOp   1
 Largest Abelian subgroup         C1      NOp   1
 Largest concise Abelian subgroup C1      NOp   1
                         Standard orientation:                         
 ---------------------------------------------------------------------
 Center     Atomic      Atomic             Coordinates (Angstroms)
 Number     Number       Type             X           Y           Z
 ---------------------------------------------------------------------
      1          6           0        1.141958    1.041055   -0.007497
      2          6           0        1.821432    0.921175   -1.201728
      3          6           0        3.185210    0.686874   -1.201320
      4          6           0        3.869251    0.572517    0.000718
      5          6           0        3.181879    0.693791    1.208831
      6          6           0        1.803576    0.930588    1.208419
      7          9           0       -0.190331    1.269947   -0.007896
      8          1           0        1.287165    1.010493   -2.140574
      9          1           0        3.718624    0.592763   -2.138837
     10          1           0        4.936669    0.389131    0.001037
     11          1           0        3.715538    0.604575    2.146610
     12          1           0        1.252291    1.027742    2.135766
     13          8           0       -3.762110    1.883607   -0.002639
     14          6           0       -4.947735    2.087310    0.000635
     15          1           0       -5.652022    1.240454    0.003835
     16          1           0       -5.329005    3.120701   -0.001115
     17          1           0       -0.907551   -0.727840   -0.002581
     18         35           0       -0.901294   -2.153036    0.001134
 ---------------------------------------------------------------------
 Rotational constants (GHZ):           0.7738305           0.3862140           0.2830814

 **********************************************************************

            Population analysis using the SCF Density.

 **********************************************************************

 Orbital symmetries:
       Occupied  (A) (A) (A) (A) (A) (A) (A) (A) (A) (A) (A) (A)
                 (A) (A) (A) (A) (A) (A) (A) (A) (A) (A) (A) (A)
                 (A) (A) (A) (A) (A) (A) (A) (A) (A) (A) (A) (A)
                 (A) (A) (A) (A) (A) (A) (A) (A) (A) (A) (A) (A)
                 (A) (A) (A)
       Virtual   (A) (A) (A) (A) (A) (A) (A) (A) (A) (A) (A) (A)
                 (A) (A) (A) (A) (A) (A) (A) (A) (A) (A) (A) (A)
                 (A) (A) (A) (A) (A) (A) (A) (A) (A) (A) (A) (A)
                 (A) (A) (A) (A) (A) (A) (A) (A) (A) (A) (A) (A)
                 (A) (A) (A) (A) (A) (A) (A) (A) (A) (A) (A) (A)
                 (A) (A) (A) (A) (A) (A) (A) (A) (A) (A) (A) (A)
                 (A) (A) (A) (A) (A) (A) (A) (A) (A) (A) (A) (A)
                 (A) (A) (A) (A) (A) (A) (A) (A) (A) (A) (A) (A)
                 (A) (A) (A) (A) (A) (A) (A) (A) (A) (A) (A) (A)
                 (A) (A) (A) (A) (A) (A) (A) (A) (A) (A) (A) (A)
                 (A) (A) (A) (A) (A) (A) (A) (A) (A) (A) (A) (A)
                 (A) (A) (A) (A) (A) (A) (A) (A) (A) (A) (A) (A)
                 (A) (A) (A) (A) (A) (A) (A) (A) (A) (A) (A) (A)
                 (A) (A) (A) (A) (A) (A) (A) (A) (A) (A) (A) (A)
                 (A) (A) (A) (A) (A) (A) (A) (A) (A) (A) (A) (A)
                 (A) (A) (A) (A) (A) (A) (A) (A) (A) (A) (A) (A)
                 (A) (A) (A) (A) (A) (A) (A) (A) (A) (A) (A) (A)
                 (A) (A) (A) (A) (A) (A) (A) (A) (A) (A) (A) (A)
                 (A) (A) (A) (A) (A) (A) (A) (A) (A) (A) (A) (A)
                 (A) (A) (A) (A) (A) (A) (A) (A) (A) (A) (A) (A)
                 (A) (A) (A) (A) (A) (A) (A) (A) (A) (A) (A)
 The electronic state is 1-A.
 Alpha  occ. eigenvalues -- -485.33746 -63.32971 -57.15696 -57.15470 -57.15469
 Alpha  occ. eigenvalues --  -25.26929 -19.64491 -10.63898 -10.63876 -10.56008
 Alpha  occ. eigenvalues --  -10.55915 -10.55775 -10.55669 -10.55195  -9.01684
 Alpha  occ. eigenvalues --   -6.84427  -6.83487  -6.83486  -2.87607  -2.87237
 Alpha  occ. eigenvalues --   -2.87236  -2.86420  -2.86420  -1.38749  -1.19236
 Alpha  occ. eigenvalues --   -0.97992  -0.87667  -0.86339  -0.85823  -0.72282
 Alpha  occ. eigenvalues --   -0.71846  -0.71320  -0.64035  -0.58923  -0.58552
 Alpha  occ. eigenvalues --   -0.58336  -0.58053  -0.53846  -0.52431  -0.50637
 Alpha  occ. eigenvalues --   -0.49324  -0.49304  -0.47710  -0.44761  -0.43916
 Alpha  occ. eigenvalues --   -0.41676  -0.36268  -0.36267  -0.34785  -0.32462
 Alpha  occ. eigenvalues --   -0.31420
 Alpha virt. eigenvalues --   -0.00776  -0.00140   0.00433   0.00670   0.01349
 Alpha virt. eigenvalues --    0.01398   0.01751   0.02496   0.03309   0.03396
 Alpha virt. eigenvalues --    0.03900   0.05610   0.05914   0.06574   0.06586
 Alpha virt. eigenvalues --    0.07202   0.07530   0.08172   0.09489   0.10345
 Alpha virt. eigenvalues --    0.11011   0.11072   0.11424   0.12672   0.12925
 Alpha virt. eigenvalues --    0.13225   0.13554   0.13645   0.14198   0.14509
 Alpha virt. eigenvalues --    0.14907   0.15589   0.15812   0.15844   0.16473
 Alpha virt. eigenvalues --    0.16667   0.17060   0.17892   0.18216   0.19424
 Alpha virt. eigenvalues --    0.20507   0.21563   0.22153   0.22217   0.23002
 Alpha virt. eigenvalues --    0.24644   0.25099   0.26497   0.28169   0.29795
 Alpha virt. eigenvalues --    0.30131   0.30475   0.31431   0.32651   0.32751
 Alpha virt. eigenvalues --    0.33098   0.33943   0.36721   0.38182   0.38689
 Alpha virt. eigenvalues --    0.40092   0.40927   0.41232   0.42097   0.44739
 Alpha virt. eigenvalues --    0.45343   0.45482   0.47650   0.49259   0.51268
 Alpha virt. eigenvalues --    0.52611   0.52900   0.54136   0.56171   0.57008
 Alpha virt. eigenvalues --    0.57360   0.57516   0.58349   0.59525   0.59903
 Alpha virt. eigenvalues --    0.61092   0.62853   0.63414   0.63786   0.64357
 Alpha virt. eigenvalues --    0.65556   0.66664   0.67250   0.68956   0.70440
 Alpha virt. eigenvalues --    0.70570   0.71525   0.73423   0.75791   0.76747
 Alpha virt. eigenvalues --    0.77114   0.80689   0.81489   0.82065   0.85247
 Alpha virt. eigenvalues --    0.88071   0.88434   0.90660   0.91527   0.93916
 Alpha virt. eigenvalues --    0.94066   0.95103   0.95685   0.97500   1.03428
 Alpha virt. eigenvalues --    1.04558   1.05224   1.05361   1.06451   1.09007
 Alpha virt. eigenvalues --    1.12252   1.12673   1.14330   1.15569   1.18170
 Alpha virt. eigenvalues --    1.22233   1.23598   1.32308   1.33690   1.39754
 Alpha virt. eigenvalues --    1.44588   1.46132   1.46170   1.48753   1.48993
 Alpha virt. eigenvalues --    1.50162   1.51869   1.55202   1.55787   1.59241
 Alpha virt. eigenvalues --    1.60128   1.60787   1.60953   1.62744   1.66972
 Alpha virt. eigenvalues --    1.68377   1.68835   1.70199   1.72981   1.77027
 Alpha virt. eigenvalues --    1.77424   1.77849   1.79945   1.86020   1.86273
 Alpha virt. eigenvalues --    1.89994   1.91161   1.94648   1.95124   1.96208
 Alpha virt. eigenvalues --    1.97791   1.99010   2.01035   2.02950   2.04299
 Alpha virt. eigenvalues --    2.06163   2.06489   2.06911   2.09518   2.10189
 Alpha virt. eigenvalues --    2.10930   2.17060   2.19599   2.30424   2.30672
 Alpha virt. eigenvalues --    2.35330   2.43750   2.43945   2.47021   2.48731
 Alpha virt. eigenvalues --    2.50326   2.52054   2.52845   2.60528   2.64796
 Alpha virt. eigenvalues --    2.66190   2.69162   2.71835   2.72900   2.72976
 Alpha virt. eigenvalues --    2.73542   2.76203   2.76754   2.79520   2.84526
 Alpha virt. eigenvalues --    2.85076   2.85594   2.88504   2.94166   2.94388
 Alpha virt. eigenvalues --    2.94487   2.97561   2.98221   3.13749   3.18511
 Alpha virt. eigenvalues --    3.25140   3.38902   3.39437   3.42467   3.48283
 Alpha virt. eigenvalues --    3.53064   3.55486   3.56450   3.66421   3.74107
 Alpha virt. eigenvalues --    3.78999   3.86901   3.94076   3.95183   4.02919
 Alpha virt. eigenvalues --    4.06700   4.09002   4.16546   4.19222   4.20646
 Alpha virt. eigenvalues --    4.28379   4.28627   4.33213   4.35596   4.50866
 Alpha virt. eigenvalues --    4.85819   4.95030   5.09713   5.21061   5.77541
 Alpha virt. eigenvalues --    6.50459   6.58762   6.82538   6.88673   7.63015
 Alpha virt. eigenvalues --    7.65479   7.67118  23.66330  23.99318  24.01120
 Alpha virt. eigenvalues --   24.05179  24.15563  24.17068  24.27632  48.35338
 Alpha virt. eigenvalues --   50.03812  66.94768 290.77730 290.80584 290.84097
 Alpha virt. eigenvalues -- 1020.90844
          Condensed to atoms (all electrons):
               1          2          3          4          5          6
     1  C   14.667131  -6.302285   3.724970  -3.604098   3.649501  -5.699049
     2  C   -6.302285  13.801104  -3.604144   3.031537  -3.411645   1.901804
     3  C    3.724970  -3.604144   9.108769  -2.432018   2.809813  -3.397860
     4  C   -3.604098   3.031537  -2.432018   8.174006  -2.346043   2.893771
     5  C    3.649501  -3.411645   2.809813  -2.346043   8.891966  -3.384070
     6  C   -5.699049   1.901804  -3.397860   2.893771  -3.384070  13.128051
     7  F    0.839511  -0.512416   0.127436  -0.083884   0.125526  -0.495681
     8  H   -0.308086   0.689255  -0.151115   0.090707  -0.076247   0.057924
     9  H    0.061036  -0.049672   0.349993  -0.037887   0.000983   0.006317
    10  H   -0.011247   0.003749  -0.012097   0.356811  -0.011256   0.004315
    11  H    0.051894   0.009127  -0.001998  -0.032460   0.346120  -0.043018
    12  H   -0.291569   0.061809  -0.078281   0.087236  -0.146620   0.669820
    13  O    0.010044  -0.002639  -0.000551  -0.000042  -0.000526  -0.002872
    14  C    0.003649  -0.002773   0.000709  -0.000274   0.000704  -0.002433
    15  H   -0.000370   0.000215  -0.000088   0.000044  -0.000087   0.000190
    16  H   -0.000511   0.000222   0.000000   0.000005  -0.000002   0.000206
    17  H   -0.141909   0.074961  -0.027609   0.031063  -0.027628   0.073156
    18  Br   0.327178  -0.182793   0.070144  -0.064317   0.069249  -0.174214
               7          8          9         10         11         12
     1  C    0.839511  -0.308086   0.061036  -0.011247   0.051894  -0.291569
     2  C   -0.512416   0.689255  -0.049672   0.003749   0.009127   0.061809
     3  C    0.127436  -0.151115   0.349993  -0.012097  -0.001998  -0.078281
     4  C   -0.083884   0.090707  -0.037887   0.356811  -0.032460   0.087236
     5  C    0.125526  -0.076247   0.000983  -0.011256   0.346120  -0.146620
     6  C   -0.495681   0.057924   0.006317   0.004315  -0.043018   0.669820
     7  F    9.191450  -0.025725   0.001539  -0.000734   0.001371  -0.025704
     8  H   -0.025725   0.470141  -0.004083   0.001396   0.000384   0.003432
     9  H    0.001539  -0.004083   0.441255   0.001439  -0.000602   0.000302
    10  H   -0.000734   0.001396   0.001439   0.446045   0.001660   0.001324
    11  H    0.001371   0.000384  -0.000602   0.001660   0.440636  -0.003147
    12  H   -0.025704   0.003432   0.000302   0.001324  -0.003147   0.468026
    13  O    0.003319   0.000716  -0.000007  -0.000001  -0.000007   0.000754
    14  C    0.000161  -0.000421   0.000008  -0.000002   0.000007  -0.000430
    15  H   -0.000147   0.000015  -0.000002   0.000000  -0.000002   0.000015
    16  H   -0.000071   0.000008   0.000000  -0.000000   0.000000   0.000008
    17  H    0.004181   0.005503  -0.000453   0.000277  -0.000387   0.005548
    18  Br  -0.009072  -0.008663   0.000817  -0.000547   0.000699  -0.008621
              13         14         15         16         17         18
     1  C    0.010044   0.003649  -0.000370  -0.000511  -0.141909   0.327178
     2  C   -0.002639  -0.002773   0.000215   0.000222   0.074961  -0.182793
     3  C   -0.000551   0.000709  -0.000088   0.000000  -0.027609   0.070144
     4  C   -0.000042  -0.000274   0.000044   0.000005   0.031063  -0.064317
     5  C   -0.000526   0.000704  -0.000087  -0.000002  -0.027628   0.069249
     6  C   -0.002872  -0.002433   0.000190   0.000206   0.073156  -0.174214
     7  F    0.003319   0.000161  -0.000147  -0.000071   0.004181  -0.009072
     8  H    0.000716  -0.000421   0.000015   0.000008   0.005503  -0.008663
     9  H   -0.000007   0.000008  -0.000002   0.000000  -0.000453   0.000817
    10  H   -0.000001  -0.000002   0.000000  -0.000000   0.000277  -0.000547
    11  H   -0.000007   0.000007  -0.000002   0.000000  -0.000387   0.000699
    12  H    0.000754  -0.000430   0.000015   0.000008   0.005548  -0.008621
    13  O    8.117937   0.316249  -0.079280  -0.084051   0.008684  -0.004685
    14  C    0.316249   4.868819   0.388587   0.393862  -0.001077   0.000030
    15  H   -0.079280   0.388587   0.672160  -0.111239   0.000701  -0.000114
    16  H   -0.084051   0.393862  -0.111239   0.673820   0.000004   0.000061
    17  H    0.008684  -0.001077   0.000701   0.000004   0.635439   0.235163
    18  Br  -0.004685   0.000030  -0.000114   0.000061   0.235163  34.872693
 Mulliken charges:
               1
     1  C   -0.975790
     2  C    0.494584
     3  C   -0.486074
     4  C   -0.064155
     5  C   -0.489738
     6  C    0.463643
     7  F   -0.141063
     8  H    0.254858
     9  H    0.229015
    10  H    0.218867
    11  H    0.229720
    12  H    0.256096
    13  O   -0.283043
    14  C    0.034625
    15  H    0.129402
    16  H    0.127678
    17  H    0.124382
    18  Br  -0.123007
 Sum of Mulliken charges =  -0.00000
 Mulliken charges with hydrogens summed into heavy atoms:
               1
     1  C   -0.975790
     2  C    0.749441
     3  C   -0.257059
     4  C    0.154712
     5  C   -0.260018
     6  C    0.719739
     7  F   -0.141063
    13  O   -0.283043
    14  C    0.291705
    18  Br   0.001375
 Electronic spatial extent (au):  <R**2>=           3660.0187
 Charge=              0.0000 electrons
 Dipole moment (field-independent basis, Debye):
    X=             -0.6377    Y=              1.6785    Z=             -0.0081  Tot=              1.7956
 Quadrupole moment (field-independent basis, Debye-Ang):
   XX=            -38.5216   YY=            -75.1673   ZZ=            -65.2802
   XY=             -8.3382   XZ=             -0.1312   YZ=              0.0408
 Traceless Quadrupole moment (field-independent basis, Debye-Ang):
   XX=             21.1348   YY=            -15.5110   ZZ=             -5.6238
   XY=             -8.3382   XZ=             -0.1312   YZ=              0.0408
 Octapole moment (field-independent basis, Debye-Ang**2):
  XXX=           -171.3297  YYY=            -54.1741  ZZZ=             -0.1315  XYY=            -49.5523
  XXY=             42.3556  XXZ=             -0.2073  XZZ=             -1.9548  YZZ=             -9.6884
  YYZ=              0.0027  XYZ=             -0.0697
 Hexadecapole moment (field-independent basis, Debye-Ang**3):
 XXXX=          -1986.7911 YYYY=          -1035.6602 ZZZZ=           -291.9276 XXXY=           -352.6721
 XXXZ=             -1.3646 YYYX=            -72.2698 YYYZ=             -0.4046 ZZZX=             -0.5150
 ZZZY=             -0.0120 XXYY=           -605.3867 XXZZ=           -537.3070 YYZZ=           -241.1830
 XXYZ=              0.0289 YYXZ=             -0.3348 ZZXY=             12.8643
 N-N= 6.569724510347D+02 E-N=-8.514134387557D+03  KE= 3.016095890407D+03
 1\1\GINC-R820\POpt\RM062X\6-311++G(d,p)\C7H8Br1F1O1\ZJXU\28-Mar-2024\1
 \\# m062x 6-311++G(d,p) opt=(z-matrix,maxcyc=50) scrf=(solvent=chlorof
 orm)\\test\\0,1\C\C,1,d1\C,2,d2,1,120.\C,3,d3,2,120.,1,0.,0\C,4,d4,3,1
 20.,2,0.,0\C,5,d5,4,120.,3,0.,0\F,1,d6,2,120.,3,180.,0\H,2,d7,3,120.,4
 ,180.,0\H,3,d8,4,120.,5,180.,0\H,4,d9,5,120.,6,180.,0\H,5,d10,6,120.,1
 ,180.,0\H,6,d11,1,120.,2,180.,0\O,7,d12,1,179.9,3,180.,0\C,13,d13,1,17
 9.9,2,180.,0\H,14,d14,1,120.,2,90.,0\H,14,d15,1,120.,2,-90.,0\H,7,d16,
 1,100.,2,90.,0\Br,17,d17,7,160.,1,0.,0\\d1=1.37921831\d2=1.38375859\d3
 =1.38776247\d4=1.39525099\d5=1.39849538\d6=1.35180874\d7=1.08390562\d8
 =1.08273993\d9=1.08305672\d10=1.08267357\d11=1.08320251\d12=3.62411459
 \d13=1.20300198\d14=1.10145153\d15=1.10148381\d16=2.12263594\d17=1.425
 21497\\Version=ES64L-G16RevB.01\State=1-A\HF=-3020.7065913\RMSD=5.734e
 -09\RMSF=3.774e-03\Dipole=-0.3117348,-0.6083555,-0.17824\Quadrupole=11
 .60949,-12.8199359,1.2104459,1.127415,9.2275394,0.6409616\PG=C01 [X(C7
 H8Br1F1O1)]\\@


 A MAN BEGINS CUTTING HIS WISDOM TEETH THE 1ST
 TIME HE BITES OFF MORE THAN HE CAN CHEW.
 Job cpu time:       0 days  7 hours  4 minutes 14.7 seconds.
 Elapsed time:       0 days  3 hours 32 minutes 13.9 seconds.
 File lengths (MBytes):  RWF=    193 Int=      0 D2E=      0 Chk=     12 Scr=      1
 Normal termination of Gaussian 16 at Thu Mar 28 13:39:10 2024.
