 Entering Gaussian System, Link 0=g16
 Input=model_H2b.gjf
 Output=model_H2b.log
 Initial command:
 /home/lywu/software/g16/l1.exe "/home/lywu/software/g16/scr/Gau-5946.inp" -scrdir="/home/lywu/software/g16/scr/"
 Entering Link 1 = /home/lywu/software/g16/l1.exe PID=      5968.
  
 Copyright (c) 1988-2017, Gaussian, Inc.  All Rights Reserved.
  
 This is part of the Gaussian(R) 16 program.  It is based on
 the Gaussian(R) 09 system (copyright 2009, Gaussian, Inc.),
 the Gaussian(R) 03 system (copyright 2003, Gaussian, Inc.),
 the Gaussian(R) 98 system (copyright 1998, Gaussian, Inc.),
 the Gaussian(R) 94 system (copyright 1995, Gaussian, Inc.),
 the Gaussian 92(TM) system (copyright 1992, Gaussian, Inc.),
 the Gaussian 90(TM) system (copyright 1990, Gaussian, Inc.),
 the Gaussian 88(TM) system (copyright 1988, Gaussian, Inc.),
 the Gaussian 86(TM) system (copyright 1986, Carnegie Mellon
 University), and the Gaussian 82(TM) system (copyright 1983,
 Carnegie Mellon University). Gaussian is a federally registered
 trademark of Gaussian, Inc.
  
 This software contains proprietary and confidential information,
 including trade secrets, belonging to Gaussian, Inc.
  
 This software is provided under written license and may be
 used, copied, transmitted, or stored only in accord with that
 written license.
  
 The following legend is applicable only to US Government
 contracts under FAR:
  
                    RESTRICTED RIGHTS LEGEND
  
 Use, reproduction and disclosure by the US Government is
 subject to restrictions as set forth in subparagraphs (a)
 and (c) of the Commercial Computer Software - Restricted
 Rights clause in FAR 52.227-19.
  
 Gaussian, Inc.
 340 Quinnipiac St., Bldg. 40, Wallingford CT 06492
  
  
 ---------------------------------------------------------------
 Warning -- This program may not be used in any manner that
 competes with the business of Gaussian, Inc. or will provide
 assistance to any competitor of Gaussian, Inc.  The licensee
 of this program is prohibited from giving any competitor of
 Gaussian, Inc. access to this program.  By using this program,
 the user acknowledges that Gaussian, Inc. is engaged in the
 business of creating and licensing software in the field of
 computational chemistry and represents and warrants to the
 licensee that it is not a competitor of Gaussian, Inc. and that
 it will not use this program in any manner prohibited above.
 ---------------------------------------------------------------
  

 Cite this work as:
 Gaussian 16, Revision B.01,
 M. J. Frisch, G. W. Trucks, H. B. Schlegel, G. E. Scuseria, 
 M. A. Robb, J. R. Cheeseman, G. Scalmani, V. Barone, 
 G. A. Petersson, H. Nakatsuji, X. Li, M. Caricato, A. V. Marenich, 
 J. Bloino, B. G. Janesko, R. Gomperts, B. Mennucci, H. P. Hratchian, 
 J. V. Ortiz, A. F. Izmaylov, J. L. Sonnenberg, D. Williams-Young, 
 F. Ding, F. Lipparini, F. Egidi, J. Goings, B. Peng, A. Petrone, 
 T. Henderson, D. Ranasinghe, V. G. Zakrzewski, J. Gao, N. Rega, 
 G. Zheng, W. Liang, M. Hada, M. Ehara, K. Toyota, R. Fukuda, 
 J. Hasegawa, M. Ishida, T. Nakajima, Y. Honda, O. Kitao, H. Nakai, 
 T. Vreven, K. Throssell, J. A. Montgomery, Jr., J. E. Peralta, 
 F. Ogliaro, M. J. Bearpark, J. J. Heyd, E. N. Brothers, K. N. Kudin, 
 V. N. Staroverov, T. A. Keith, R. Kobayashi, J. Normand, 
 K. Raghavachari, A. P. Rendell, J. C. Burant, S. S. Iyengar, 
 J. Tomasi, M. Cossi, J. M. Millam, M. Klene, C. Adamo, R. Cammi, 
 J. W. Ochterski, R. L. Martin, K. Morokuma, O. Farkas, 
 J. B. Foresman, and D. J. Fox, Gaussian, Inc., Wallingford CT, 2016.
 
 ******************************************
 Gaussian 16:  ES64L-G16RevB.01 20-Dec-2017
                 6-Jan-2025 
 ******************************************
 %mem=4GB
 %nprocshared=4
 Will use up to    4 processors via shared memory.
 ----------------------------------------------------------------
 # opt=z-matrix 6-311++g(d,p) m062x scrf=(solvent=dichloroethane)
 ----------------------------------------------------------------
 1/10=7,18=40,26=3,38=1/1,3;
 2/12=2,17=6,18=5,29=3,40=1/2;
 3/5=4,6=6,7=1111,11=2,25=1,30=1,70=2201,71=1,72=10,74=-55/1,2,3;
 4//1;
 5/5=2,38=5,53=10/2;
 6/7=2,8=2,9=2,10=2,28=1/1;
 7/29=1/1,2,3,16;
 1/10=7,18=40,26=3/3(2);
 2/29=3/2;
 99//99;
 2/29=3/2;
 3/5=4,6=6,7=1111,11=2,25=1,30=1,70=2205,71=1,72=10,74=-55/1,2,3;
 4/5=5,16=3,69=1/1;
 5/5=2,38=5,53=10/2;
 7//1,2,3,16;
 1/18=40,26=3/3(-5);
 2/29=3/2;
 6/7=2,8=2,9=2,10=2,19=2,28=1/1;
 99/9=1/99;
 ----
 test
 ----
 Symbolic Z-matrix:
 Charge =  0 Multiplicity = 1
 C
 C                    1    B1
 C                    2    B2       1     120. 
 C                    3    B3       2     120.     1     0.       0
 C                    4    B4       3     120.     2     0.       0
 C                    1    B5       2     119.97771  3     1.71723  0
 F                    1    B6       2     120.     3    -180.     0
 H                    2    B7       1     120.     6    -178.28277  0
 H                    3    B8       2     120.     1     180.     0
 H                    4    B9       3     120.     2     180.     0
 H                    5    B10      4     120.     3     180.     0
 H                    6    B11      1     119.91553  2    -177.77152  0
 O                    1    B12      2     120.     3    -180.     0
 C                    13   B13      1     179.9    2     180.     0
 H                    14   B14      13    119.99997  1    -90.0449  0
 H                    14   B15      13    119.99997  1     90.0449  0
 H                    7    B16      1     100.     2     90.      0
 N                    17   B17      7     179.9    1     90.      0
 C                    18   B18      17    119.5    7     0.       0
 O                    19   B19      18    123.2    17   -180.     0
 C                    18   B20      17    121.9    19   -180.     0
 H                    21   B21      18    110.7    17   -180.     0
 H                    21   B22      18    110.7    17   -60.      0
 H                    21   B23      18    110.7    17    60.      0
 H                    19   B24      18    113.46722  17    0.       0
 H                    7    B25      1     100.     2    -90.      0
 N                    26   B26      7     179.9    1    -90.      0
 C                    27   B27      26    119.5    7     180.     0
 O                    28   B28      27    123.2    26   -180.     0
 C                    27   B29      26    121.9    28   -180.     0
 H                    30   B30      27    110.7    26    180.     0
 H                    30   B31      27    110.7    26   -60.      0
 H                    30   B32      27    110.7    26    60.      0
 H                    28   B33      27    113.46722  26    0.       0
       Variables:
  B1                    1.3                      
  B2                    1.3                      
  B3                    1.3                      
  B4                    1.3                      
  B5                    1.3                      
  B6                    1.4                      
  B7                    1.                       
  B8                    1.                       
  B9                    1.                       
  B10                   1.                       
  B11                   1.00101                  
  B12                   4.2                      
  B13                   1.2                      
  B14                   1.                       
  B15                   1.                       
  B16                   2.12                     
  B17                   1.                       
  B18                   1.33                     
  B19                   1.23                     
  B20                   1.45                     
  B21                   1.                       
  B22                   1.                       
  B23                   1.                       
  B24                   1.                       
  B25                   2.12                     
  B26                   1.                       
  B27                   1.33                     
  B28                   1.23                     
  B29                   1.45                     
  B30                   1.                       
  B31                   1.                       
  B32                   1.                       
  B33                   1.                       
 

 GradGradGradGradGradGradGradGradGradGradGradGradGradGradGradGradGradGrad
 Berny optimization.
 Initialization pass.
                       ----------------------------
                       !    Initial Parameters    !
                       ! (Angstroms and Degrees)  !
 ----------------------                            ----------------------
 !      Name          Value   Derivative information (Atomic Units)     !
 ------------------------------------------------------------------------
 !       B1          1.3      estimate D2E/DX2                          !
 !       B2          1.3      estimate D2E/DX2                          !
 !       B3          1.3      estimate D2E/DX2                          !
 !       B4          1.3      estimate D2E/DX2                          !
 !       B5          1.3      estimate D2E/DX2                          !
 !       B6          1.4      estimate D2E/DX2                          !
 !       B7          1.0      estimate D2E/DX2                          !
 !       B8          1.0      estimate D2E/DX2                          !
 !       B9          1.0      estimate D2E/DX2                          !
 !       B10         1.0      estimate D2E/DX2                          !
 !       B11         1.001    estimate D2E/DX2                          !
 !       B12         4.2      estimate D2E/DX2                          !
 !       B13         1.2      estimate D2E/DX2                          !
 !       B14         1.0      estimate D2E/DX2                          !
 !       B15         1.0      estimate D2E/DX2                          !
 !       B16         2.12     estimate D2E/DX2                          !
 !       B17         1.0      estimate D2E/DX2                          !
 !       B18         1.33     estimate D2E/DX2                          !
 !       B19         1.23     estimate D2E/DX2                          !
 !       B20         1.45     estimate D2E/DX2                          !
 !       B21         1.0      estimate D2E/DX2                          !
 !       B22         1.0      estimate D2E/DX2                          !
 !       B23         1.0      estimate D2E/DX2                          !
 !       B24         1.0      estimate D2E/DX2                          !
 !       B25         2.12     estimate D2E/DX2                          !
 !       B26         1.0      estimate D2E/DX2                          !
 !       B27         1.33     estimate D2E/DX2                          !
 !       B28         1.23     estimate D2E/DX2                          !
 !       B29         1.45     estimate D2E/DX2                          !
 !       B30         1.0      estimate D2E/DX2                          !
 !       B31         1.0      estimate D2E/DX2                          !
 !       B32         1.0      estimate D2E/DX2                          !
 !       B33         1.0      estimate D2E/DX2                          !
 ------------------------------------------------------------------------
 Trust Radius=3.00D-01 FncErr=1.00D-07 GrdErr=1.00D-06 EigMax=2.50D+02 EigMin=1.00D-04
 Number of steps in this run=     43 maximum allowed number of steps=    100.
 GradGradGradGradGradGradGradGradGradGradGradGradGradGradGradGradGradGrad

 ---------------------------------------------------------------------------------------------------
                            Z-MATRIX (ANGSTROMS AND DEGREES)
   CD    Cent   Atom    N1       Length/X        N2       Alpha/Y        N3        Beta/Z          J
 ---------------------------------------------------------------------------------------------------
      1      1  C 
      2      2  C        1   1.300000(     1)
      3      3  C        2   1.300000(     2)      1  120.000(    34)
      4      4  C        3   1.300000(     3)      2  120.000(    35)      1    0.000(    66)      0
      5      5  C        4   1.300000(     4)      3  120.000(    36)      2    0.000(    67)      0
      6      6  C        1   1.300000(     5)      2  119.978(    37)      3    1.717(    68)      0
      7      7  F        1   1.400000(     6)      2  120.000(    38)      3 -180.000(    69)      0
      8      8  H        2   1.000000(     7)      1  120.000(    39)      6 -178.283(    70)      0
      9      9  H        3   1.000000(     8)      2  120.000(    40)      1  180.000(    71)      0
     10     10  H        4   1.000000(     9)      3  120.000(    41)      2  180.000(    72)      0
     11     11  H        5   1.000000(    10)      4  120.000(    42)      3  180.000(    73)      0
     12     12  H        6   1.001007(    11)      1  119.916(    43)      2 -177.772(    74)      0
     13     13  O        1   4.200000(    12)      2  120.000(    44)      3 -180.000(    75)      0
     14     14  C       13   1.200000(    13)      1  179.900(    45)      2  180.000(    76)      0
     15     15  H       14   1.000000(    14)     13  120.000(    46)      1  -90.045(    77)      0
     16     16  H       14   1.000000(    15)     13  120.000(    47)      1   90.045(    78)      0
     17     17  H        7   2.120000(    16)      1  100.000(    48)      2   90.000(    79)      0
     18     18  N       17   1.000000(    17)      7  179.900(    49)      1   90.000(    80)      0
     19     19  C       18   1.330000(    18)     17  119.500(    50)      7    0.000(    81)      0
     20     20  O       19   1.230000(    19)     18  123.200(    51)     17 -180.000(    82)      0
     21     21  C       18   1.450000(    20)     17  121.900(    52)     19 -180.000(    83)      0
     22     22  H       21   1.000000(    21)     18  110.700(    53)     17 -180.000(    84)      0
     23     23  H       21   1.000000(    22)     18  110.700(    54)     17  -60.000(    85)      0
     24     24  H       21   1.000000(    23)     18  110.700(    55)     17   60.000(    86)      0
     25     25  H       19   1.000000(    24)     18  113.467(    56)     17    0.000(    87)      0
     26     26  H        7   2.120000(    25)      1  100.000(    57)      2  -90.000(    88)      0
     27     27  N       26   1.000000(    26)      7  179.900(    58)      1  -90.000(    89)      0
     28     28  C       27   1.330000(    27)     26  119.500(    59)      7  180.000(    90)      0
     29     29  O       28   1.230000(    28)     27  123.200(    60)     26 -180.000(    91)      0
     30     30  C       27   1.450000(    29)     26  121.900(    61)     28 -180.000(    92)      0
     31     31  H       30   1.000000(    30)     27  110.700(    62)     26  180.000(    93)      0
     32     32  H       30   1.000000(    31)     27  110.700(    63)     26  -60.000(    94)      0
     33     33  H       30   1.000000(    32)     27  110.700(    64)     26   60.000(    95)      0
     34     34  H       28   1.000000(    33)     27  113.467(    65)     26    0.000(    96)      0
 ---------------------------------------------------------------------------------------------------
                         Z-Matrix orientation:                         
 ---------------------------------------------------------------------
 Center     Atomic      Atomic             Coordinates (Angstroms)
 Number     Number       Type             X           Y           Z
 ---------------------------------------------------------------------
      1          6           0        0.000000    0.000000    0.000000
      2          6           0        0.000000    0.000000    1.300000
      3          6           0        1.125833    0.000000    1.950000
      4          6           0        2.251666    0.000000    1.300000
      5          6           0        2.251666    0.000000    0.000000
      6          6           0        1.125580   -0.033745   -0.649562
      7          9           0       -1.212436    0.000000   -0.700000
      8          1           0       -0.866025    0.000000    1.800000
      9          1           0        1.125833    0.000000    2.950000
     10          1           0        3.117691    0.000000    1.800000
     11          1           0        3.117691    0.000000   -0.500000
     12          1           0        1.125833   -0.000000   -1.650000
     13          8           0       -3.637307    0.000000   -2.100000
     14          6           0       -4.675488    0.000000   -2.701813
     15          1           0       -5.108404    0.866025   -2.951981
     16          1           0       -5.108404   -0.866025   -2.951981
     17          1           0       -1.531249    2.087792   -0.884067
     18          7           0       -1.680760    3.072599   -0.972403
     19          6           0       -1.199589    3.715582   -2.032566
     20          8           0       -1.343395    4.924232   -2.209721
     21          6           0       -2.411147    3.829308    0.025809
     22          1           0       -2.460643    4.795025   -0.229027
     23          1           0       -3.344400    3.482475    0.119330
     24          1           0       -1.962551    3.763826    0.917141
     25          1           0       -0.710188    3.121088   -2.670583
     26          1           0       -1.531249   -2.087792   -0.884067
     27          7           0       -1.680760   -3.072599   -0.972403
     28          6           0       -2.357768   -3.719561   -0.027945
     29          8           0       -2.580991   -4.928484   -0.067642
     30          6           0       -1.179494   -3.825076   -2.105985
     31          1           0       -1.423325   -4.791461   -2.024456
     32          1           0       -1.565208   -3.476362   -2.960165
     33          1           0       -0.183359   -3.757713   -2.162354
     34          1           0       -2.667076   -3.127812    0.716476
 ---------------------------------------------------------------------
                    Distance matrix (angstroms):
                    1          2          3          4          5
     1  C    0.000000
     2  C    1.300000   0.000000
     3  C    2.251666   1.300000   0.000000
     4  C    2.600000   2.251666   1.300000   0.000000
     5  C    2.251666   2.600000   2.251666   1.300000   0.000000
     6  C    1.300000   2.251413   2.599781   2.251666   1.300438
     7  F    1.400000   2.338803   3.534119   4.000000   3.534119
     8  H    1.997498   1.000000   1.997498   3.157531   3.600000
     9  H    3.157531   1.997498   1.000000   1.997498   3.157531
    10  H    3.600000   3.157531   1.997498   1.000000   1.997498
    11  H    3.157531   3.600000   3.157531   1.997498   1.000000
    12  H    1.997498   3.157531   3.600000   3.157531   1.997498
    13  O    4.200000   4.978956   6.252200   6.800000   6.252200
    14  C    5.399999   6.154242   7.436040   7.999998   7.435406
    15  H    5.963219   6.702621   7.977790   8.544002   7.977144
    16  H    5.963219   6.702621   7.977790   8.544002   7.977144
    17  H    2.735905   3.387292   4.410317   4.841433   4.410317
    18  N    3.634747   4.174881   5.085102   5.483489   5.084329
    19  C    4.401805   5.133279   5.922328   6.068171   5.463335
    20  O    5.561982   6.194426   6.902784   7.034960   6.485013
    21  C    4.525251   4.701148   5.556648   6.166765   6.033746
    22  H    5.394393   5.602227   6.372066   6.894639   6.726854
    23  H    4.829791   4.970576   5.954995   6.696086   6.592255
    24  H    4.342712   4.261992   4.977078   5.663267   5.724261
    25  H    4.168641   5.100106   5.870430   5.854853   5.064167
    26  H    2.735905   3.387292   4.410317   4.841433   4.410317
    27  N    3.634747   4.174881   5.085102   5.483489   5.084329
    28  C    4.403973   4.599743   5.466523   6.070045   5.923073
    29  O    5.563816   5.729041   6.488558   7.036688   6.902833
    30  C    4.523007   5.255773   6.032972   6.164804   5.553309
    31  H    5.392808   6.002996   6.727006   6.893161   6.368837
    32  H    4.826753   5.716990   6.590638   6.693476   5.951151
    33  H    4.339332   5.112918   5.722399   5.660181   4.972477
    34  H    4.172510   4.151747   5.068624   5.858134   5.872867
                    6          7          8          9         10
     6  C    0.000000
     7  F    2.338803   0.000000
     8  H    3.157212   2.523886   0.000000
     9  H    3.599720   4.334743   2.300000   0.000000
    10  H    3.157531   5.000000   3.983717   2.300000   0.000000
    11  H    1.998003   4.334743   4.600000   3.983717   2.300000
    12  H    1.001007   2.523886   3.983717   4.600000   3.983717
    13  O    4.978956   2.800000   4.784349   6.941902   7.800000
    14  C    6.153476   3.999999   5.897315   8.099279   8.999998
    15  H    6.706212   4.582574   6.428771   8.628389   9.539390
    16  H    6.697491   4.582574   6.428771   8.628389   9.539390
    17  H    3.408028   2.120000   3.464912   5.110678   5.759839
    18  N    4.198707   3.119999   4.217923   5.718660   6.336577
    19  C    4.623479   3.947334   5.348399   6.636196   6.865349
    20  O    5.754257   5.152132   6.368187   7.547706   7.760620
    21  C    5.280885   4.077660   4.494303   5.977016   6.955531
    22  H    6.029500   4.977158   5.445367   6.779475   7.630663
    23  H    5.738965   4.164638   4.592888   6.334296   7.530665
    24  H    5.139325   4.164638   4.018482   5.276080   6.383940
    25  H    4.172235   3.725136   5.454502   6.686039   6.661829
    26  H    3.366429   2.120000   3.464912   5.110678   5.759839
    27  N    4.149024   3.119999   4.217923   5.718660   6.336577
    28  C    5.109340   3.949503   4.404749   5.902437   6.867108
    29  O    6.167314   5.153909   5.542486   6.865615   7.762282
    30  C    4.669981   4.075425   5.475965   6.746016   6.953685
    31  H    5.569840   4.975616   6.155903   7.362168   7.629246
    32  H    4.942756   4.161477   5.935749   7.365925   7.528201
    33  H    4.227269   4.161477   5.503335   6.478469   6.381034
    34  H    5.081687   3.729020   3.768423   5.399814   6.664890
                   11         12         13         14         15
    11  H    0.000000
    12  H    2.300000   0.000000
    13  O    6.941902   4.784349   0.000000
    14  C    8.098249   5.895900   1.200000   0.000000
    15  H    8.627332   6.427353   1.907878   1.000000   0.000000
    16  H    8.627332   6.427353   1.907878   1.000000   1.732051
    17  H    5.110678   3.464912   3.205129   4.189191   4.308714
    18  N    5.717444   4.216274   3.813189   4.626027   4.531715
    19  C    5.898577   4.399942   4.444386   5.131795   4.923833
    20  O    6.860940   5.537006   5.433427   5.965992   5.585274
    21  C    6.745971   5.475597   4.548201   5.218310   4.992341
    22  H    7.360944   6.154205   5.279900   5.832022   5.464628
    23  H    7.366806   5.936425   4.139910   4.675284   4.403461
    24  H    6.479471   5.504064   5.106304   5.884152   5.767473
    25  H    5.394931   3.762148   4.316802   5.046363   4.950636
    26  H    5.110678   3.464912   3.205129   4.189191   5.079109
    27  N    5.717444   4.216274   3.813189   4.626027   5.583926
    28  C    6.636160   5.348053   4.445871   5.133862   6.094554
    29  O    7.546646   6.366660   5.434725   5.967892   6.948638
    30  C    5.972956   4.489283   4.546657   5.216148   6.177255
    31  H    6.775168   5.440269   5.278780   5.830392   6.815223
    32  H    6.329854   4.587301   4.137460   4.671797   5.604519
    33  H    5.270746   4.012094   5.104317   5.881382   6.801363
    34  H    6.687791   5.456150   4.319385   5.049913   5.947133
                   16         17         18         19         20
    16  H    0.000000
    17  H    5.079109   0.000000
    18  N    5.583926   1.000000   0.000000
    19  C    6.092232   2.019591   1.330000   0.000000
    20  O    6.946461   3.136564   2.252403   1.230000   0.000000
    21  C    6.179691   2.152898   1.450000   2.391174   2.708605
    22  H    6.817082   2.936317   2.031644   2.451165   2.277737
    23  H    5.608397   2.497892   2.031644   3.047165   3.392221
    24  H    6.804559   2.497892   2.031644   3.047165   3.392221
    25  H    5.943111   2.221144   1.956573   1.000000   1.965877
    26  H    4.308714   4.175585   5.163312   5.925217   7.138707
    27  N    4.531715   5.163312   6.145197   6.887297   8.099017
    28  C    4.925307   5.928021   6.890847   7.787248   8.972416
    29  O    5.586663   7.141194   8.102243   8.971570  10.158551
    30  C    4.990794   6.048044   7.008152   7.541042   8.751458
    31  H    5.463438   6.973970   7.938295   8.509988   9.717788
    32  H    4.400928   5.938952   6.844957   7.260728   8.436963
    33  H    5.765539   6.133577   7.093050   7.543189   8.759230
    34  H    4.953114   5.572645   6.501555   7.519494   8.668920
                   21         22         23         24         25
    21  C    0.000000
    22  H    1.000000   0.000000
    23  H    1.000000   1.620237   0.000000
    24  H    1.000000   1.620237   1.620237   0.000000
    25  H    3.265787   3.439091   3.853996   3.853996   0.000000
    26  H    6.050965   6.976104   5.943249   6.137737   5.567604
    27  N    7.011862   7.941053   6.850443   7.098344   6.495197
    28  C    7.549249   8.517581   7.270795   7.553176   7.516152
    29  O    8.759938   9.725593   8.447603   8.769751   8.664342
    30  C    8.040592   8.914621   7.939720   8.206334   6.984857
    31  H    8.916111   9.808176   8.760386   9.062930   7.970852
    32  H    7.937536   8.756527   7.815001   8.222634   6.658924
    33  H    8.204511   9.059421   8.223053   8.319999   6.917641
    34  H    6.996002   7.981725   6.671675   6.930462   7.372268
                   26         27         28         29         30
    26  H    0.000000
    27  N    1.000000   0.000000
    28  C    2.019591   1.330000   0.000000
    29  O    3.136564   2.252403   1.230000   0.000000
    30  C    2.152898   1.450000   2.391174   2.708605   0.000000
    31  H    2.936317   2.031644   2.451165   2.277737   1.000000
    32  H    2.497892   2.031644   3.047165   3.392221   1.000000
    33  H    2.497892   2.031644   3.047165   3.392221   1.000000
    34  H    2.221144   1.956573   1.000000   1.965877   3.265787
                   31         32         33         34
    31  H    0.000000
    32  H    1.620237   0.000000
    33  H    1.620237   1.620237   0.000000
    34  H    3.439091   3.853996   3.853996   0.000000
 Stoichiometry    C11H17FN2O3
 Framework group  C1[X(C11H17FN2O3)]
 Deg. of freedom    96
 Full point group                 C1      NOp   1
 Largest Abelian subgroup         C1      NOp   1
 Largest concise Abelian subgroup C1      NOp   1
                         Standard orientation:                         
 ---------------------------------------------------------------------
 Center     Atomic      Atomic             Coordinates (Angstroms)
 Number     Number       Type             X           Y           Z
 ---------------------------------------------------------------------
      1          6           0        0.000457    1.291765   -0.001238
      2          6           0       -0.089187    1.942161   -1.123267
      3          6           0       -0.090338    3.242160   -1.122716
      4          6           0       -0.001845    3.891764   -0.000137
      5          6           0        0.087799    3.241368    1.121892
      6          6           0        0.055271    1.941337    1.123507
      7          9           0        0.001697   -0.108234   -0.001831
      8          1           0       -0.157258    1.442466   -1.986789
      9          1           0       -0.159295    3.742465   -1.985815
     10          1           0       -0.002731    4.891763    0.000287
     11          1           0        0.155870    3.741062    1.985415
     12          1           0        0.157907    1.441064    1.984441
     13          8           0        0.004177   -2.908233   -0.003016
     14          6           0        0.005406   -4.108231   -0.001437
     15          1           0        0.869175   -4.607438   -0.069969
     16          1           0       -0.857447   -4.609025    0.067059
     17          1           0        2.083271   -0.474455   -0.167158
     18          7           0        3.065282   -0.647201   -0.243403
     19          6           0        3.798020   -0.760395    0.860763
     20          8           0        5.009519   -0.972434    0.846314
     21          6           0        3.722454   -0.779503   -1.529141
     22          1           0        4.700797   -0.948969   -1.410282
     23          1           0        3.334059   -1.541087   -2.047926
     24          1           0        3.613115    0.054791   -2.069509
     25          1           0        3.268370   -0.656395    1.702579
     26          1           0       -2.079224   -0.478282    0.163185
     27          7           0       -3.060651   -0.652833    0.242763
     28          6           0       -3.796974   -0.767095   -0.858906
     29          8           0       -5.008029   -0.981341   -0.840345
     30          6           0       -3.713158   -0.786638    1.530719
     31          1           0       -4.691593   -0.957855    1.415182
     32          1           0       -3.321597   -1.547639    2.047979
     33          1           0       -3.603479    0.047724    2.070914
     34          1           0       -3.270411   -0.661930   -1.702512
 ---------------------------------------------------------------------
 Rotational constants (GHZ):           0.4004203           0.2441305           0.1724963
 Standard basis: 6-311++G(d,p) (5D, 7F)
 There are   510 symmetry adapted cartesian basis functions of A   symmetry.
 There are   493 symmetry adapted basis functions of A   symmetry.
   493 basis functions,   765 primitive gaussians,   510 cartesian basis functions
    65 alpha electrons       65 beta electrons
       nuclear repulsion energy      1168.0421586032 Hartrees.
 NAtoms=   34 NActive=   34 NUniq=   34 SFac= 1.00D+00 NAtFMM=   60 NAOKFM=F Big=F
 Integral buffers will be    131072 words long.
 Raffenetti 2 integral format.
 Two-electron integral symmetry is turned on.
 ------------------------------------------------------------------------------
 Polarizable Continuum Model (PCM)
 =================================
 Model                : PCM.
 Atomic radii         : UFF (Universal Force Field).
 Polarization charges : Total charges.
 Charge compensation  : None.
 Solution method      : On-the-fly selection.
 Cavity type          : Scaled VdW (van der Waals Surface) (Alpha=1.100).
 Cavity algorithm     : GePol (No added spheres)
                        Default sphere list used, NSphG=   34.
                        Lebedev-Laikov grids with approx.  5.0 points / Ang**2.
                        Smoothing algorithm: York/Karplus (Gamma=1.0000).
                        Polarization charges: spherical gaussians, with
                                              point-specific exponents (IZeta= 3).
                        Self-potential: point-specific (ISelfS= 7).
                        Self-field    : sphere-specific E.n sum rule (ISelfD= 2).
 1st derivatives      : Analytical E(r).r(x)/FMM algorithm (CHGder, D1EAlg=3).
                        Cavity 1st derivative terms included.
 Solvent              : DiChloroEthane, Eps=  10.125000 Eps(inf)=   2.087447
 ------------------------------------------------------------------------------
 One-electron integrals computed using PRISM.
 NBasis=   493 RedAO= T EigKep=  2.78D-06  NBF=   493
 NBsUse=   492 1.00D-06 EigRej=  3.49D-07 NBFU=   492
 ExpMin= 3.60D-02 ExpMax= 1.14D+04 ExpMxC= 1.72D+03 IAcc=3 IRadAn=         5 AccDes= 0.00D+00
 Harris functional with IExCor= 1009 and IRadAn=       5 diagonalized for initial guess.
 HarFok:  IExCor= 1009 AccDes= 0.00D+00 IRadAn=         5 IDoV= 1 UseB2=F ITyADJ=14
 ICtDFT=  3500011 ScaDFX=  1.000000  1.000000  1.000000  1.000000
 FoFCou: FMM=F IPFlag=           0 FMFlag=      100000 FMFlg1=           0
         NFxFlg=           0 DoJE=T BraDBF=F KetDBF=T FulRan=T
         wScrn=  0.000000 ICntrl=       500 IOpCl=  0 I1Cent=   200000004 NGrid=           0
         NMat0=    1 NMatS0=      1 NMatT0=    0 NMatD0=    1 NMtDS0=    0 NMtDT0=    0
 Petite list used in FoFCou.
 Requested convergence on RMS density matrix=1.00D-08 within 128 cycles.
 Requested convergence on MAX density matrix=1.00D-06.
 Requested convergence on             energy=1.00D-06.
 No special actions if energy rises.
 Inv3:  Mode=1 IEnd=    28570188.
 Iteration    1 A*A^-1 deviation from unit magnitude is 4.22D-15 for   3084.
 Iteration    1 A*A^-1 deviation from orthogonality  is 1.99D-15 for   2193    195.
 Iteration    1 A^-1*A deviation from unit magnitude is 4.22D-15 for   3084.
 Iteration    1 A^-1*A deviation from orthogonality  is 2.81D-15 for   3080   3029.
 Error on total polarization charges =  0.01422
 SCF Done:  E(RM062X) =  -864.155427874     A.U. after   14 cycles
            NFock= 14  Conv=0.40D-08     -V/T= 1.9991

 **********************************************************************

            Population analysis using the SCF Density.

 **********************************************************************

 Orbital symmetries:
       Occupied  (A) (A) (A) (A) (A) (A) (A) (A) (A) (A) (A) (A)
                 (A) (A) (A) (A) (A) (A) (A) (A) (A) (A) (A) (A)
                 (A) (A) (A) (A) (A) (A) (A) (A) (A) (A) (A) (A)
                 (A) (A) (A) (A) (A) (A) (A) (A) (A) (A) (A) (A)
                 (A) (A) (A) (A) (A) (A) (A) (A) (A) (A) (A) (A)
                 (A) (A) (A) (A) (A)
       Virtual   (A) (A) (A) (A) (A) (A) (A) (A) (A) (A) (A) (A)
                 (A) (A) (A) (A) (A) (A) (A) (A) (A) (A) (A) (A)
                 (A) (A) (A) (A) (A) (A) (A) (A) (A) (A) (A) (A)
                 (A) (A) (A) (A) (A) (A) (A) (A) (A) (A) (A) (A)
                 (A) (A) (A) (A) (A) (A) (A) (A) (A) (A) (A) (A)
                 (A) (A) (A) (A) (A) (A) (A) (A) (A) (A) (A) (A)
                 (A) (A) (A) (A) (A) (A) (A) (A) (A) (A) (A) (A)
                 (A) (A) (A) (A) (A) (A) (A) (A) (A) (A) (A) (A)
                 (A) (A) (A) (A) (A) (A) (A) (A) (A) (A) (A) (A)
                 (A) (A) (A) (A) (A) (A) (A) (A) (A) (A) (A) (A)
                 (A) (A) (A) (A) (A) (A) (A) (A) (A) (A) (A) (A)
                 (A) (A) (A) (A) (A) (A) (A) (A) (A) (A) (A) (A)
                 (A) (A) (A) (A) (A) (A) (A) (A) (A) (A) (A) (A)
                 (A) (A) (A) (A) (A) (A) (A) (A) (A) (A) (A) (A)
                 (A) (A) (A) (A) (A) (A) (A) (A) (A) (A) (A) (A)
                 (A) (A) (A) (A) (A) (A) (A) (A) (A) (A) (A) (A)
                 (A) (A) (A) (A) (A) (A) (A) (A) (A) (A) (A) (A)
                 (A) (A) (A) (A) (A) (A) (A) (A) (A) (A) (A) (A)
                 (A) (A) (A) (A) (A) (A) (A) (A) (A) (A) (A) (A)
                 (A) (A) (A) (A) (A) (A) (A) (A) (A) (A) (A) (A)
                 (A) (A) (A) (A) (A) (A) (A) (A) (A) (A) (A) (A)
                 (A) (A) (A) (A) (A) (A) (A) (A) (A) (A) (A) (A)
                 (A) (A) (A) (A) (A) (A) (A) (A) (A) (A) (A) (A)
                 (A) (A) (A) (A) (A) (A) (A) (A) (A) (A) (A) (A)
                 (A) (A) (A) (A) (A) (A) (A) (A) (A) (A) (A) (A)
                 (A) (A) (A) (A) (A) (A) (A) (A) (A) (A) (A) (A)
                 (A) (A) (A) (A) (A) (A) (A) (A) (A) (A) (A) (A)
                 (A) (A) (A) (A) (A) (A) (A) (A) (A) (A) (A) (A)
                 (A) (A) (A) (A) (A) (A) (A) (A) (A) (A) (A) (A)
                 (A) (A) (A) (A) (A) (A) (A) (A) (A) (A) (A) (A)
                 (A) (A) (A) (A) (A) (A) (A) (A) (A) (A) (A) (A)
                 (A) (A) (A) (A) (A) (A) (A) (A) (A) (A) (A) (A)
                 (A) (A) (A) (A) (A) (A) (A) (A) (A) (A) (A) (A)
                 (A) (A) (A) (A) (A) (A) (A) (A) (A) (A) (A) (A)
                 (A) (A) (A) (A) (A) (A) (A) (A) (A) (A) (A) (A)
                 (A) (A) (A) (A) (A) (A) (A)
 The electronic state is 1-A.
 Alpha  occ. eigenvalues --  -25.26598 -19.64030 -19.59177 -19.59175 -14.77446
 Alpha  occ. eigenvalues --  -14.77444 -10.63165 -10.63162 -10.61956 -10.61723
 Alpha  occ. eigenvalues --  -10.53625 -10.53622 -10.52974 -10.52962 -10.52602
 Alpha  occ. eigenvalues --  -10.52589 -10.51852  -1.37182  -1.19227  -1.16218
 Alpha  occ. eigenvalues --   -1.16215  -1.03874  -1.03863  -1.03666  -0.89814
 Alpha  occ. eigenvalues --   -0.88986  -0.83368  -0.83363  -0.75107  -0.74320
 Alpha  occ. eigenvalues --   -0.72957  -0.69604  -0.69455  -0.67059  -0.65022
 Alpha  occ. eigenvalues --   -0.64740  -0.60608  -0.59798  -0.59436  -0.58154
 Alpha  occ. eigenvalues --   -0.54568  -0.54452  -0.54327  -0.54108  -0.54104
 Alpha  occ. eigenvalues --   -0.53741  -0.53009  -0.50972  -0.49590  -0.49558
 Alpha  occ. eigenvalues --   -0.48492  -0.47640  -0.47440  -0.47178  -0.46255
 Alpha  occ. eigenvalues --   -0.46252  -0.44910  -0.42546  -0.35215  -0.34384
 Alpha  occ. eigenvalues --   -0.34358  -0.34334  -0.33565  -0.32510  -0.32372
 Alpha virt. eigenvalues --   -0.00766  -0.00680   0.00330   0.00419   0.00793
 Alpha virt. eigenvalues --    0.01759   0.01990   0.02226   0.02285   0.02671
 Alpha virt. eigenvalues --    0.03141   0.03220   0.03811   0.04116   0.04212
 Alpha virt. eigenvalues --    0.05145   0.05232   0.05354   0.05524   0.06079
 Alpha virt. eigenvalues --    0.06641   0.06964   0.07086   0.08295   0.08710
 Alpha virt. eigenvalues --    0.09098   0.09203   0.09482   0.09543   0.10369
 Alpha virt. eigenvalues --    0.10703   0.11241   0.11613   0.12082   0.12272
 Alpha virt. eigenvalues --    0.12311   0.13286   0.13354   0.13769   0.13981
 Alpha virt. eigenvalues --    0.14054   0.14142   0.14482   0.14543   0.14948
 Alpha virt. eigenvalues --    0.15346   0.15450   0.15787   0.15813   0.16600
 Alpha virt. eigenvalues --    0.17067   0.17303   0.17533   0.18338   0.18553
 Alpha virt. eigenvalues --    0.18974   0.19298   0.19576   0.19940   0.20408
 Alpha virt. eigenvalues --    0.20481   0.20880   0.21047   0.21385   0.22331
 Alpha virt. eigenvalues --    0.23201   0.23532   0.24231   0.24487   0.25211
 Alpha virt. eigenvalues --    0.25513   0.25673   0.26222   0.26604   0.26801
 Alpha virt. eigenvalues --    0.26920   0.27436   0.28041   0.28223   0.28666
 Alpha virt. eigenvalues --    0.29612   0.30008   0.30443   0.30873   0.31386
 Alpha virt. eigenvalues --    0.31804   0.31847   0.32491   0.33078   0.33408
 Alpha virt. eigenvalues --    0.33711   0.34099   0.34261   0.34550   0.35175
 Alpha virt. eigenvalues --    0.35816   0.36553   0.36991   0.37154   0.37559
 Alpha virt. eigenvalues --    0.37766   0.38968   0.39520   0.39916   0.40943
 Alpha virt. eigenvalues --    0.41445   0.41969   0.43011   0.44457   0.44481
 Alpha virt. eigenvalues --    0.44631   0.45883   0.46750   0.47104   0.49569
 Alpha virt. eigenvalues --    0.49596   0.50357   0.51442   0.53430   0.54610
 Alpha virt. eigenvalues --    0.55091   0.56229   0.56702   0.58424   0.59677
 Alpha virt. eigenvalues --    0.60056   0.60655   0.61100   0.61206   0.61415
 Alpha virt. eigenvalues --    0.62065   0.62336   0.62803   0.62943   0.63906
 Alpha virt. eigenvalues --    0.64194   0.65783   0.66026   0.67280   0.67868
 Alpha virt. eigenvalues --    0.69236   0.69319   0.69903   0.70435   0.71678
 Alpha virt. eigenvalues --    0.72055   0.73830   0.74145   0.75278   0.75799
 Alpha virt. eigenvalues --    0.76178   0.76929   0.77580   0.78097   0.78162
 Alpha virt. eigenvalues --    0.80234   0.80642   0.80758   0.81328   0.81851
 Alpha virt. eigenvalues --    0.83146   0.84427   0.85688   0.86092   0.87859
 Alpha virt. eigenvalues --    0.89062   0.89974   0.90985   0.91324   0.91851
 Alpha virt. eigenvalues --    0.93992   0.94291   0.94739   0.95249   0.97198
 Alpha virt. eigenvalues --    1.00117   1.00824   1.01455   1.02186   1.02504
 Alpha virt. eigenvalues --    1.03252   1.03524   1.06477   1.08312   1.08780
 Alpha virt. eigenvalues --    1.09155   1.10363   1.10701   1.11663   1.11731
 Alpha virt. eigenvalues --    1.13691   1.14311   1.16180   1.16654   1.17644
 Alpha virt. eigenvalues --    1.18020   1.18822   1.19898   1.21012   1.21417
 Alpha virt. eigenvalues --    1.21700   1.23812   1.24494   1.26026   1.27371
 Alpha virt. eigenvalues --    1.28877   1.29943   1.30366   1.33910   1.35292
 Alpha virt. eigenvalues --    1.36056   1.36713   1.37693   1.40333   1.44167
 Alpha virt. eigenvalues --    1.46927   1.53251   1.53719   1.54634   1.54657
 Alpha virt. eigenvalues --    1.55462   1.57536   1.58739   1.58914   1.59845
 Alpha virt. eigenvalues --    1.61276   1.62487   1.63023   1.63814   1.64004
 Alpha virt. eigenvalues --    1.64261   1.65268   1.65429   1.67813   1.68060
 Alpha virt. eigenvalues --    1.68644   1.68963   1.69478   1.70736   1.72126
 Alpha virt. eigenvalues --    1.72567   1.73460   1.74219   1.75819   1.76538
 Alpha virt. eigenvalues --    1.76910   1.77202   1.78157   1.80606   1.82506
 Alpha virt. eigenvalues --    1.82882   1.83277   1.84114   1.85081   1.85447
 Alpha virt. eigenvalues --    1.85875   1.86989   1.87687   1.87902   1.91452
 Alpha virt. eigenvalues --    1.92707   1.93013   1.94653   1.97226   1.97668
 Alpha virt. eigenvalues --    1.99458   1.99607   2.03581   2.04059   2.04983
 Alpha virt. eigenvalues --    2.05493   2.05755   2.07306   2.09712   2.13762
 Alpha virt. eigenvalues --    2.13941   2.14655   2.15319   2.16003   2.16898
 Alpha virt. eigenvalues --    2.18118   2.18740   2.20725   2.21650   2.26315
 Alpha virt. eigenvalues --    2.26793   2.29941   2.37931   2.40336   2.40483
 Alpha virt. eigenvalues --    2.40984   2.41846   2.43358   2.46638   2.49509
 Alpha virt. eigenvalues --    2.50316   2.52653   2.53681   2.56217   2.56701
 Alpha virt. eigenvalues --    2.57289   2.58626   2.58735   2.60258   2.62655
 Alpha virt. eigenvalues --    2.62926   2.64733   2.65458   2.66278   2.68031
 Alpha virt. eigenvalues --    2.69876   2.70164   2.70823   2.72191   2.72302
 Alpha virt. eigenvalues --    2.74729   2.75897   2.77250   2.77758   2.78659
 Alpha virt. eigenvalues --    2.80294   2.80624   2.81888   2.81972   2.84754
 Alpha virt. eigenvalues --    2.84873   2.86731   2.86859   2.87801   2.89529
 Alpha virt. eigenvalues --    2.90171   2.90949   2.92012   2.94292   2.94756
 Alpha virt. eigenvalues --    2.94821   2.95722   2.96595   2.99285   3.00060
 Alpha virt. eigenvalues --    3.00847   3.00980   3.02765   3.04557   3.05683
 Alpha virt. eigenvalues --    3.06896   3.07042   3.09422   3.11653   3.24850
 Alpha virt. eigenvalues --    3.26952   3.28323   3.29458   3.36149   3.39845
 Alpha virt. eigenvalues --    3.41759   3.42014   3.42216   3.44027   3.45427
 Alpha virt. eigenvalues --    3.55703   3.60689   3.61637   3.63664   3.64260
 Alpha virt. eigenvalues --    3.65072   3.70631   3.71717   3.75371   3.77565
 Alpha virt. eigenvalues --    3.87244   3.87711   3.87968   3.88347   3.96074
 Alpha virt. eigenvalues --    3.96426   4.01042   4.01828   4.03800   4.04951
 Alpha virt. eigenvalues --    4.05834   4.09164   4.10706   4.10826   4.11186
 Alpha virt. eigenvalues --    4.12327   4.13262   4.17342   4.18972   4.26060
 Alpha virt. eigenvalues --    4.26738   4.36736   4.94287   4.94709   4.99374
 Alpha virt. eigenvalues --    5.00862   5.06485   5.06728   5.12029   5.17623
 Alpha virt. eigenvalues --    5.17881   5.26512   5.33330   5.33523   5.85096
 Alpha virt. eigenvalues --    5.86839   5.86926   6.63949   6.67838   6.90749
 Alpha virt. eigenvalues --   23.74624  24.08986  24.09365  24.17944  24.26768
 Alpha virt. eigenvalues --   24.27886  24.27945  24.31556  24.53905  24.56911
 Alpha virt. eigenvalues --   24.72458  35.71247  35.72904  50.07851  50.11759
 Alpha virt. eigenvalues --   50.11861  66.98271
          Condensed to atoms (all electrons):
               1          2          3          4          5          6
     1  C   15.530166  -1.902449  -2.603578  -0.509483  -2.530478  -1.746482
     2  C   -1.902449  17.941881   1.940261  -0.908324  -0.624818 -10.917064
     3  C   -2.603578   1.940261   7.088654   0.452996  -0.324381  -0.675382
     4  C   -0.509483  -0.908324   0.452996   7.620774   0.403341  -0.841201
     5  C   -2.530478  -0.624818  -0.324381   0.403341   7.229765   1.695558
     6  C   -1.746482 -10.917064  -0.675382  -0.841201   1.695558  18.008027
     7  F    0.787088  -0.310369  -0.072585   0.004021  -0.057669  -0.312633
     8  H   -0.237214   0.678505   0.004373  -0.037212   0.017380  -0.128711
     9  H    0.048075  -0.037049   0.376934  -0.123224  -0.006418   0.070744
    10  H    0.023808  -0.029191  -0.058653   0.514971  -0.074008  -0.017013
    11  H    0.050649   0.083815  -0.015630  -0.129938   0.406886  -0.069363
    12  H   -0.225698  -0.145654   0.025546  -0.030178  -0.037532   0.709317
    13  O    0.058313  -0.022950  -0.002453  -0.000491  -0.002723  -0.025866
    14  C   -0.002321   0.001170   0.000824   0.000258   0.000781   0.000672
    15  H   -0.000914  -0.000804  -0.000039  -0.000070   0.000160   0.001163
    16  H    0.000097   0.000282   0.000004   0.000009  -0.000112  -0.000496
    17  H    0.040797   0.001782  -0.053881  -0.006084   0.028680  -0.016998
    18  N   -0.062363   0.012246   0.036936  -0.001089   0.002717   0.018159
    19  C    0.049092  -0.024540  -0.000870   0.005561  -0.014516   0.003051
    20  O    0.002003  -0.000119  -0.000979   0.000174   0.001118  -0.001802
    21  C   -0.006314   0.054395   0.006799   0.003369  -0.011352  -0.049011
    22  H    0.004081   0.004007   0.000632   0.000481  -0.001951  -0.004999
    23  H    0.003488  -0.003454   0.000135   0.000207  -0.000967   0.002377
    24  H   -0.001180  -0.006967  -0.001464   0.002115   0.005160   0.005612
    25  H    0.031569  -0.015645  -0.006201   0.006317  -0.011351   0.009183
    26  H    0.040780  -0.040229   0.008341  -0.003488  -0.042334   0.021075
    27  N   -0.052120   0.034459   0.011263  -0.003719   0.029306  -0.012355
    28  C    0.043672   0.019101  -0.008765   0.006403  -0.004659  -0.035133
    29  O    0.001703  -0.001188   0.000429  -0.000039  -0.000644  -0.000129
    30  C   -0.006904  -0.041360  -0.007457   0.002507   0.006654   0.047108
    31  H    0.006129  -0.003257  -0.001756   0.000458  -0.000356   0.001517
    32  H    0.003880   0.003524  -0.000632   0.000113  -0.000157  -0.005068
    33  H   -0.009962  -0.006382   0.002855   0.003857   0.002427   0.010085
    34  H    0.032408   0.009272  -0.013207   0.006039  -0.005560  -0.015156
               7          8          9         10         11         12
     1  C    0.787088  -0.237214   0.048075   0.023808   0.050649  -0.225698
     2  C   -0.310369   0.678505  -0.037049  -0.029191   0.083815  -0.145654
     3  C   -0.072585   0.004373   0.376934  -0.058653  -0.015630   0.025546
     4  C    0.004021  -0.037212  -0.123224   0.514971  -0.129938  -0.030178
     5  C   -0.057669   0.017380  -0.006418  -0.074008   0.406886  -0.037532
     6  C   -0.312633  -0.128711   0.070744  -0.017013  -0.069363   0.709317
     7  F    9.091206  -0.016470  -0.001252   0.001070  -0.000674  -0.018587
     8  H   -0.016470   0.497613  -0.008519   0.000855   0.002474   0.002269
     9  H   -0.001252  -0.008519   0.464895  -0.013544   0.001467   0.002362
    10  H    0.001070   0.000855  -0.013544   0.480103  -0.015582   0.002017
    11  H   -0.000674   0.002474   0.001467  -0.015582   0.474866  -0.016335
    12  H   -0.018587   0.002269   0.002362   0.002017  -0.016335   0.517512
    13  O    0.000623  -0.000032   0.000037  -0.000004   0.000048  -0.000100
    14  C    0.001491   0.000078  -0.000016   0.000016  -0.000017   0.000088
    15  H   -0.000184  -0.000053   0.000006  -0.000002   0.000005   0.000045
    16  H   -0.000306   0.000077  -0.000002   0.000002  -0.000005   0.000034
    17  H    0.030282  -0.008168   0.001550  -0.001348   0.001221   0.010025
    18  N   -0.020061  -0.000978   0.000411  -0.000028  -0.000092   0.003160
    19  C   -0.001426   0.003036  -0.000466   0.000327  -0.000469  -0.003747
    20  O   -0.000006   0.000185  -0.000039   0.000003   0.000008   0.000061
    21  C    0.001007   0.000117  -0.000323   0.000189  -0.000212  -0.000140
    22  H   -0.000493   0.000554  -0.000044   0.000014   0.000017  -0.000470
    23  H   -0.000338  -0.000336   0.000089   0.000009  -0.000039   0.000126
    24  H    0.000893  -0.002981  -0.000430  -0.000042   0.000096  -0.000715
    25  H   -0.003899   0.000739  -0.000220   0.000018   0.000013  -0.012831
    26  H    0.043314   0.012529   0.000362  -0.001124   0.001729  -0.009841
    27  N   -0.019616   0.003974  -0.000065  -0.000106   0.000605  -0.000582
    28  C   -0.005135  -0.004205  -0.000444   0.000376  -0.000614   0.003338
    29  O    0.000091   0.000079   0.000009  -0.000000  -0.000028   0.000095
    30  C   -0.001008  -0.001247   0.000056   0.000059  -0.000061  -0.001148
    31  H   -0.000902  -0.000383   0.000004   0.000026  -0.000087   0.000776
    32  H    0.000020  -0.000009  -0.000025  -0.000005   0.000158  -0.000879
    33  H    0.000306  -0.000368  -0.000024   0.000080  -0.000887  -0.001461
    34  H   -0.003727  -0.012933  -0.000008   0.000028  -0.000204   0.000562
              13         14         15         16         17         18
     1  C    0.058313  -0.002321  -0.000914   0.000097   0.040797  -0.062363
     2  C   -0.022950   0.001170  -0.000804   0.000282   0.001782   0.012246
     3  C   -0.002453   0.000824  -0.000039   0.000004  -0.053881   0.036936
     4  C   -0.000491   0.000258  -0.000070   0.000009  -0.006084  -0.001089
     5  C   -0.002723   0.000781   0.000160  -0.000112   0.028680   0.002717
     6  C   -0.025866   0.000672   0.001163  -0.000496  -0.016998   0.018159
     7  F    0.000623   0.001491  -0.000184  -0.000306   0.030282  -0.020061
     8  H   -0.000032   0.000078  -0.000053   0.000077  -0.008168  -0.000978
     9  H    0.000037  -0.000016   0.000006  -0.000002   0.001550   0.000411
    10  H   -0.000004   0.000016  -0.000002   0.000002  -0.001348  -0.000028
    11  H    0.000048  -0.000017   0.000005  -0.000005   0.001221  -0.000092
    12  H   -0.000100   0.000088   0.000045   0.000034   0.010025   0.003160
    13  O    8.192732   0.235003  -0.092103  -0.091805   0.036356  -0.004373
    14  C    0.235003   4.830885   0.418971   0.418715  -0.014595   0.001851
    15  H   -0.092103   0.418971   0.674478  -0.125627   0.002899   0.000840
    16  H   -0.091805   0.418715  -0.125627   0.674591  -0.001271   0.000505
    17  H    0.036356  -0.014595   0.002899  -0.001271   0.695624   0.332071
    18  N   -0.004373   0.001851   0.000840   0.000505   0.332071   7.167699
    19  C   -0.004890   0.001829  -0.000211  -0.000175  -0.162470   0.152133
    20  O    0.000142  -0.000171  -0.000031  -0.000020   0.003236  -0.176949
    21  C   -0.001920   0.002436  -0.001268   0.000519  -0.070574   0.160024
    22  H    0.000118   0.000571  -0.000541   0.000083  -0.040865  -0.107457
    23  H   -0.000305   0.000763  -0.000254   0.000006  -0.010290  -0.039818
    24  H   -0.000316  -0.000618   0.000486  -0.000205   0.034481  -0.044518
    25  H   -0.000537  -0.000426  -0.000255  -0.000093  -0.031526  -0.245927
    26  H    0.036002  -0.014989  -0.001101   0.002700  -0.072542   0.006782
    27  N   -0.004676   0.002051   0.000573   0.000807   0.006500  -0.000289
    28  C   -0.004642   0.001832  -0.000218  -0.000168   0.010902  -0.000953
    29  O    0.000147  -0.000165  -0.000022  -0.000044   0.000149  -0.000002
    30  C   -0.001224   0.002458   0.000457  -0.001175   0.006575  -0.000707
    31  H    0.000194   0.000542   0.000075  -0.000497   0.000787  -0.000077
    32  H   -0.000513   0.000803   0.000006  -0.000290   0.000863  -0.000200
    33  H   -0.000390  -0.000658  -0.000203   0.000493  -0.001122   0.000188
    34  H   -0.000559  -0.000489  -0.000096  -0.000254   0.005855  -0.000570
              19         20         21         22         23         24
     1  C    0.049092   0.002003  -0.006314   0.004081   0.003488  -0.001180
     2  C   -0.024540  -0.000119   0.054395   0.004007  -0.003454  -0.006967
     3  C   -0.000870  -0.000979   0.006799   0.000632   0.000135  -0.001464
     4  C    0.005561   0.000174   0.003369   0.000481   0.000207   0.002115
     5  C   -0.014516   0.001118  -0.011352  -0.001951  -0.000967   0.005160
     6  C    0.003051  -0.001802  -0.049011  -0.004999   0.002377   0.005612
     7  F   -0.001426  -0.000006   0.001007  -0.000493  -0.000338   0.000893
     8  H    0.003036   0.000185   0.000117   0.000554  -0.000336  -0.002981
     9  H   -0.000466  -0.000039  -0.000323  -0.000044   0.000089  -0.000430
    10  H    0.000327   0.000003   0.000189   0.000014   0.000009  -0.000042
    11  H   -0.000469   0.000008  -0.000212   0.000017  -0.000039   0.000096
    12  H   -0.003747   0.000061  -0.000140  -0.000470   0.000126  -0.000715
    13  O   -0.004890   0.000142  -0.001920   0.000118  -0.000305  -0.000316
    14  C    0.001829  -0.000171   0.002436   0.000571   0.000763  -0.000618
    15  H   -0.000211  -0.000031  -0.001268  -0.000541  -0.000254   0.000486
    16  H   -0.000175  -0.000020   0.000519   0.000083   0.000006  -0.000205
    17  H   -0.162470   0.003236  -0.070574  -0.040865  -0.010290   0.034481
    18  N    0.152133  -0.176949   0.160024  -0.107457  -0.039818  -0.044518
    19  C    4.962931   0.470648  -0.034903   0.040869  -0.005093  -0.014446
    20  O    0.470648   8.249443  -0.032850   0.037088  -0.002794  -0.004266
    21  C   -0.034903  -0.032850   5.073172   0.450711   0.426817   0.396203
    22  H    0.040869   0.037088   0.450711   0.484469  -0.027093  -0.029744
    23  H   -0.005093  -0.002794   0.426817  -0.027093   0.547912  -0.062250
    24  H   -0.014446  -0.004266   0.396203  -0.029744  -0.062250   0.563885
    25  H    0.444221  -0.035166  -0.004671   0.015846  -0.002349  -0.002841
    26  H    0.011057   0.000114   0.006307   0.000846   0.000755  -0.000949
    27  N   -0.000925  -0.000002  -0.000692  -0.000075  -0.000207   0.000184
    28  C   -0.001348  -0.000004  -0.000508  -0.000047   0.000022  -0.000001
    29  O   -0.000005  -0.000000  -0.000002  -0.000000  -0.000003   0.000002
    30  C   -0.000591  -0.000001  -0.000512  -0.000031  -0.000052   0.000055
    31  H   -0.000047   0.000000  -0.000025  -0.000000  -0.000003  -0.000001
    32  H    0.000012  -0.000003  -0.000068  -0.000004  -0.000018   0.000015
    33  H    0.000037   0.000002   0.000072   0.000001   0.000010  -0.000005
    34  H   -0.000587  -0.000000  -0.000041  -0.000000  -0.000215   0.000091
              25         26         27         28         29         30
     1  C    0.031569   0.040780  -0.052120   0.043672   0.001703  -0.006904
     2  C   -0.015645  -0.040229   0.034459   0.019101  -0.001188  -0.041360
     3  C   -0.006201   0.008341   0.011263  -0.008765   0.000429  -0.007457
     4  C    0.006317  -0.003488  -0.003719   0.006403  -0.000039   0.002507
     5  C   -0.011351  -0.042334   0.029306  -0.004659  -0.000644   0.006654
     6  C    0.009183   0.021075  -0.012355  -0.035133  -0.000129   0.047108
     7  F   -0.003899   0.043314  -0.019616  -0.005135   0.000091  -0.001008
     8  H    0.000739   0.012529   0.003974  -0.004205   0.000079  -0.001247
     9  H   -0.000220   0.000362  -0.000065  -0.000444   0.000009   0.000056
    10  H    0.000018  -0.001124  -0.000106   0.000376  -0.000000   0.000059
    11  H    0.000013   0.001729   0.000605  -0.000614  -0.000028  -0.000061
    12  H   -0.012831  -0.009841  -0.000582   0.003338   0.000095  -0.001148
    13  O   -0.000537   0.036002  -0.004676  -0.004642   0.000147  -0.001224
    14  C   -0.000426  -0.014989   0.002051   0.001832  -0.000165   0.002458
    15  H   -0.000255  -0.001101   0.000573  -0.000218  -0.000022   0.000457
    16  H   -0.000093   0.002700   0.000807  -0.000168  -0.000044  -0.001175
    17  H   -0.031526  -0.072542   0.006500   0.010902   0.000149   0.006575
    18  N   -0.245927   0.006782  -0.000289  -0.000953  -0.000002  -0.000707
    19  C    0.444221   0.011057  -0.000925  -0.001348  -0.000005  -0.000591
    20  O   -0.035166   0.000114  -0.000002  -0.000004  -0.000000  -0.000001
    21  C   -0.004671   0.006307  -0.000692  -0.000508  -0.000002  -0.000512
    22  H    0.015846   0.000846  -0.000075  -0.000047  -0.000000  -0.000031
    23  H   -0.002349   0.000755  -0.000207   0.000022  -0.000003  -0.000052
    24  H   -0.002841  -0.000949   0.000184  -0.000001   0.000002   0.000055
    25  H    0.719961   0.005532  -0.000564  -0.000561  -0.000000  -0.000008
    26  H    0.005532   0.702239   0.323882  -0.161270   0.003822  -0.066846
    27  N   -0.000564   0.323882   7.167445   0.155587  -0.176972   0.164978
    28  C   -0.000561  -0.161270   0.155587   4.958414   0.470017  -0.037317
    29  O   -0.000000   0.003822  -0.176972   0.470017   8.250134  -0.033343
    30  C   -0.000008  -0.066846   0.164978  -0.037317  -0.033343   5.067035
    31  H    0.000002  -0.041910  -0.106851   0.041029   0.036894   0.450470
    32  H   -0.000212  -0.009204  -0.041432  -0.005777  -0.002683   0.427533
    33  H    0.000088   0.032530  -0.045352  -0.013210  -0.004313   0.397114
    34  H   -0.000176  -0.031087  -0.245294   0.444159  -0.034848  -0.004920
              31         32         33         34
     1  C    0.006129   0.003880  -0.009962   0.032408
     2  C   -0.003257   0.003524  -0.006382   0.009272
     3  C   -0.001756  -0.000632   0.002855  -0.013207
     4  C    0.000458   0.000113   0.003857   0.006039
     5  C   -0.000356  -0.000157   0.002427  -0.005560
     6  C    0.001517  -0.005068   0.010085  -0.015156
     7  F   -0.000902   0.000020   0.000306  -0.003727
     8  H   -0.000383  -0.000009  -0.000368  -0.012933
     9  H    0.000004  -0.000025  -0.000024  -0.000008
    10  H    0.000026  -0.000005   0.000080   0.000028
    11  H   -0.000087   0.000158  -0.000887  -0.000204
    12  H    0.000776  -0.000879  -0.001461   0.000562
    13  O    0.000194  -0.000513  -0.000390  -0.000559
    14  C    0.000542   0.000803  -0.000658  -0.000489
    15  H    0.000075   0.000006  -0.000203  -0.000096
    16  H   -0.000497  -0.000290   0.000493  -0.000254
    17  H    0.000787   0.000863  -0.001122   0.005855
    18  N   -0.000077  -0.000200   0.000188  -0.000570
    19  C   -0.000047   0.000012   0.000037  -0.000587
    20  O    0.000000  -0.000003   0.000002  -0.000000
    21  C   -0.000025  -0.000068   0.000072  -0.000041
    22  H   -0.000000  -0.000004   0.000001  -0.000000
    23  H   -0.000003  -0.000018   0.000010  -0.000215
    24  H   -0.000001   0.000015  -0.000005   0.000091
    25  H    0.000002  -0.000212   0.000088  -0.000176
    26  H   -0.041910  -0.009204   0.032530  -0.031087
    27  N   -0.106851  -0.041432  -0.045352  -0.245294
    28  C    0.041029  -0.005777  -0.013210   0.444159
    29  O    0.036894  -0.002683  -0.004313  -0.034848
    30  C    0.450470   0.427533   0.397114  -0.004920
    31  H    0.485025  -0.027404  -0.029411   0.015733
    32  H   -0.027404   0.548716  -0.062472  -0.002260
    33  H   -0.029411  -0.062472   0.564130  -0.002815
    34  H    0.015733  -0.002260  -0.002815   0.719107
 Mulliken charges:
               1
     1  C   -0.860335
     2  C    0.257114
     3  C   -0.109069
     4  C   -0.439427
     5  C   -0.077949
     6  C    0.271214
     7  F   -0.114071
     8  H    0.234982
     9  H    0.225108
    10  H    0.186681
    11  H    0.226181
    12  H    0.228566
    13  O   -0.296843
    14  C    0.110378
    15  H    0.123831
    16  H    0.123621
    17  H    0.241097
    18  N   -0.189270
    19  C    0.126920
    20  O   -0.509022
    21  C   -0.366750
    22  H    0.173427
    23  H    0.173159
    24  H    0.164661
    25  H    0.141970
    26  H    0.236218
    27  N   -0.189721
    28  C    0.130123
    29  O   -0.509142
    30  C   -0.367148
    31  H    0.173309
    32  H    0.173676
    33  H    0.164760
    34  H    0.141751
 Sum of Mulliken charges =  -0.00000
 Mulliken charges with hydrogens summed into heavy atoms:
               1
     1  C   -0.860335
     2  C    0.492096
     3  C    0.116039
     4  C   -0.252746
     5  C    0.148232
     6  C    0.499781
     7  F   -0.114071
    13  O   -0.296843
    14  C    0.357830
    18  N    0.051828
    19  C    0.268890
    20  O   -0.509022
    21  C    0.144497
    27  N    0.046497
    28  C    0.271874
    29  O   -0.509142
    30  C    0.144596
 Electronic spatial extent (au):  <R**2>=           6327.3274
 Charge=             -0.0000 electrons
 Dipole moment (field-independent basis, Debye):
    X=              0.0290    Y=              1.5182    Z=             -0.0149  Tot=              1.5185
 Quadrupole moment (field-independent basis, Debye-Ang):
   XX=           -179.7422   YY=            -71.1885   ZZ=            -89.0107
   XY=             -0.0726   XZ=            -20.9057   YZ=             -0.0151
 Traceless Quadrupole moment (field-independent basis, Debye-Ang):
   XX=            -66.4284   YY=             42.1253   ZZ=             24.3031
   XY=             -0.0726   XZ=            -20.9057   YZ=             -0.0151
 Octapole moment (field-independent basis, Debye-Ang**2):
  XXX=              0.2184  YYY=            -85.4904  ZZZ=             -0.0952  XYY=              0.3226
  XXY=             71.4646  XXZ=             -0.5119  XZZ=             -0.0360  YZZ=              2.7393
  YYZ=              0.0051  XYZ=             25.2753
 Hexadecapole moment (field-independent basis, Debye-Ang**3):
 XXXX=          -7465.0902 YYYY=          -2040.4751 ZZZZ=           -613.2122 XXXY=             -2.2666
 XXXZ=           -642.4315 YYYX=             -1.1214 YYYZ=              0.0805 ZZZX=            -26.4755
 ZZZY=             -0.0396 XXYY=          -1378.9355 XXZZ=           -901.7306 YYZZ=           -531.6808
 XXYZ=             -0.0635 YYXZ=            -22.2586 ZZXY=              0.2859
 N-N= 1.168042158603D+03 E-N=-4.361297746373D+03  KE= 8.649507958289D+02
 D1PCM: PCM CHGder 1st derivatives, ID1Alg=3 FixD1E=F DoIter=F DoCFld=F I1PDM=0.
 Calling FoFJK, ICntrl=      2127 FMM=F ISym2X=0 I1Cent= 0 IOpClX= 0 NMat=1 NMatS=1 NMatT=0.
 ***** Axes restored to original set *****
 -------------------------------------------------------------------
 Center     Atomic                   Forces (Hartrees/Bohr)
 Number     Number              X              Y              Z
 -------------------------------------------------------------------
      1        6          -0.082550818   -0.003027897   -0.047609676
      2        6          -0.054394088    0.000986729    0.014875704
      3        6           0.002753346   -0.000184313    0.037442933
      4        6           0.039112087    0.000675619    0.022530593
      5        6           0.033397190   -0.002652511   -0.016411144
      6        6          -0.013873717    0.003294611   -0.055441953
      7        9           0.020114373    0.000348494    0.011618627
      8        1          -0.065674184    0.000444154    0.036189881
      9        1          -0.001742405   -0.000162388    0.073736835
     10        1           0.064224804    0.000617116    0.037089830
     11        1           0.062967418    0.000424836   -0.038400035
     12        1          -0.001529704   -0.000780452   -0.074003017
     13        8           0.016546253    0.000001478    0.009526944
     14        6           0.060783206   -0.000001026    0.035327048
     15        1          -0.039150594    0.071508785   -0.022703867
     16        1          -0.039147333   -0.071507838   -0.022708941
     17        1          -0.001695703   -0.009308336    0.001473096
     18        7          -0.003383586    0.013648249    0.003291005
     19        6          -0.036708349    0.053047881    0.045108413
     20        8           0.004557174   -0.002776671   -0.007092855
     21        6           0.031010135   -0.043807078   -0.038334224
     22        1          -0.000225671    0.070536537   -0.024423028
     23        1          -0.072939301   -0.029073695    0.005690597
     24        1           0.036967628   -0.006631880    0.069220748
     25        1           0.041463428   -0.046496414   -0.055423780
     26        1           0.000433447    0.009314913   -0.002183004
     27        7           0.001176489   -0.013637964   -0.004600913
     28        6           0.020843803   -0.052834843   -0.054486835
     29        8          -0.003876313    0.002736162    0.007497154
     30        6          -0.017795957    0.043642673    0.046141296
     31        1          -0.021149441   -0.070604044    0.011795810
     32        1          -0.031551662    0.029217699   -0.065946354
     33        1           0.078421913    0.006779643   -0.002523858
     34        1          -0.027383866    0.046261772    0.063736971
 -------------------------------------------------------------------
 Cartesian Forces:  Max     0.082550818 RMS     0.037013483
 -----------------------------------------------------------------------------------------------
                       Internal Coordinate Forces (Hartree/Bohr or radian)
  Cent   Atom   N1       Length/X         N2         Alpha/Y        N3         Beta/Z          J
 -----------------------------------------------------------------------------------------------
      1  C 
      2  C        1   0.167055(     1)
      3  C        2   0.231817(     2)      1   0.492452(    34)
      4  C        3   0.170542(     3)      2   0.488931(    35)      1  -0.006033(    66)     0
      5  C        4   0.054811(     4)      3   0.233386(    36)      2  -0.004739(    67)     0
      6  C        1   0.051277(     5)      2   0.297190(    37)      3  -0.003736(    68)     0
      7  F        1  -0.021109(     6)      2  -0.000001(    38)      3   0.000541(    69)     0
      8  H        2   0.074970(     7)      1  -0.002827(    39)      6  -0.000727(    70)     0
      9  H        3   0.073737(     8)      2  -0.003293(    40)      1   0.000266(    71)     0
     10  H        4   0.074165(     9)      3  -0.000016(    41)      2  -0.001010(    72)     0
     11  H        5   0.073731(    10)      4   0.003348(    42)      3  -0.000695(    73)     0
     12  H        6   0.073934(    11)      1  -0.002620(    43)      2  -0.005488(    74)     0
     13  O        1   0.001118(    12)      2   0.000003(    44)      3   0.000005(    75)     0
     14  C       13   0.020211(    13)      1  -0.000005(    45)      2  -0.000010(    76)     0
     15  H       14   0.084557(    14)     13   0.006500(    46)      1   0.000105(    77)     0
     16  H       14   0.084556(    15)     13   0.006501(    47)      1  -0.000114(    78)     0
     17  H        7  -0.000662(    16)      1   0.002887(    48)      2  -0.000204(    79)     0
     18  N       17   0.008381(    17)      7  -0.000030(    49)      1  -0.000142(    80)     0
     19  C       18   0.019070(    18)     17  -0.028651(    50)      7  -0.000139(    81)     0
     20  O       19  -0.002240(    19)     18   0.019963(    51)     17  -0.000171(    82)     0
     21  C       18   0.006296(    20)     17  -0.032507(    52)     19  -0.000099(    83)     0
     22  H       21   0.074353(    21)     18  -0.012466(    53)     17  -0.000053(    84)     0
     23  H       21   0.078687(    22)     18  -0.004703(    54)     17   0.000188(    85)     0
     24  H       21   0.078717(    23)     18  -0.004552(    55)     17  -0.000161(    86)     0
     25  H       19   0.083295(    24)     18   0.007275(    56)     17   0.000004(    87)     0
     26  H        7  -0.000681(    25)      1   0.002784(    57)      2  -0.000199(    88)     0
     27  N       26   0.008365(    26)      7   0.000032(    58)      1  -0.000130(    89)     0
     28  C       27   0.019061(    27)     26  -0.028662(    59)      7  -0.000133(    90)     0
     29  O       28  -0.002228(    28)     27   0.019961(    60)     26  -0.000174(    91)     0
     30  C       27   0.006285(    29)     26  -0.032540(    61)     28  -0.000089(    92)     0
     31  H       30   0.074349(    30)     27  -0.012472(    62)     26  -0.000055(    93)     0
     32  H       30   0.078689(    31)     27  -0.004704(    63)     26   0.000191(    94)     0
     33  H       30   0.078718(    32)     27  -0.004564(    64)     26  -0.000165(    95)     0
     34  H       28   0.083293(    33)     27   0.007267(    65)     26   0.000007(    96)     0
 -----------------------------------------------------------------------------------------------
 Internal  Forces:  Max     0.492452390 RMS     0.093502422

 GradGradGradGradGradGradGradGradGradGradGradGradGradGradGradGradGradGrad
 Berny optimization.
 Search for a local minimum.
 Step number   1 out of a maximum of   43
 All quantities printed in internal units (Hartrees-Bohrs-Radians)
 Second derivative matrix not updated -- first step.
 ITU=  0
     Eigenvalues ---    0.00539   0.03554   0.03554   0.38245   0.38245
     Eigenvalues ---    0.45621   0.47512   0.47688   0.47688   0.47688
     Eigenvalues ---    0.47688   0.47688   0.47688   0.47688   0.47688
     Eigenvalues ---    0.47688   0.47688   0.47688   0.47688   0.47688
     Eigenvalues ---    0.47688   0.47688   0.47688   0.59506   0.59506
     Eigenvalues ---    0.67193   0.67193   0.67196   0.91086   0.91086
     Eigenvalues ---    1.04823   1.07882   2.01215
 RFO step:  Lambda=-2.22572896D-01 EMin= 5.39045724D-03
 Linear search not attempted -- first point.
 Maximum step size (   0.300) exceeded in Quadratic search.
    -- Step size scaled by   0.575
 Variable       Old X    -DE/DX   Delta X   Delta X   Delta X     New X
                                 (Linear)    (Quad)   (Total)
    B1        2.45664   0.16705   0.00000   0.07429   0.07429   2.53094
    B2        2.45664   0.23182   0.00000   0.08204   0.08204   2.53869
    B3        2.45664   0.17054   0.00000   0.07579   0.07579   2.53244
    B4        2.45664   0.05481   0.00000   0.06842   0.06842   2.52506
    B5        2.45664   0.05128   0.00000   0.06684   0.06684   2.52349
    B6        2.64562  -0.02111   0.00000  -0.01789  -0.01789   2.62772
    B7        1.88973   0.07497   0.00000   0.06167   0.06167   1.95140
    B8        1.88973   0.07374   0.00000   0.06065   0.06065   1.95038
    B9        1.88973   0.07417   0.00000   0.06101   0.06101   1.95073
   B10        1.88973   0.07373   0.00000   0.06065   0.06065   1.95038
   B11        1.89163   0.07393   0.00000   0.06097   0.06097   1.95260
   B12        7.93685   0.00112   0.00000   0.00282   0.00282   7.93967
   B13        2.26767   0.02021   0.00000   0.00915   0.00915   2.27682
   B14        1.88973   0.08456   0.00000   0.06956   0.06956   1.95928
   B15        1.88973   0.08456   0.00000   0.06955   0.06955   1.95928
   B16        4.00622  -0.00066   0.00000  -0.00148  -0.00148   4.00474
   B17        1.88973   0.00838   0.00000   0.00689   0.00689   1.89662
   B18        2.51334   0.01907   0.00000   0.01342   0.01342   2.52676
   B19        2.32436  -0.00224   0.00000  -0.00114  -0.00114   2.32323
   B20        2.74010   0.00630   0.00000   0.00599   0.00599   2.74609
   B21        1.88973   0.07435   0.00000   0.06116   0.06116   1.95089
   B22        1.88973   0.07869   0.00000   0.06473   0.06473   1.95445
   B23        1.88973   0.07872   0.00000   0.06475   0.06475   1.95448
   B24        1.88973   0.08330   0.00000   0.06852   0.06852   1.95824
   B25        4.00622  -0.00068   0.00000  -0.00152  -0.00152   4.00470
   B26        1.88973   0.00836   0.00000   0.00688   0.00688   1.89661
   B27        2.51334   0.01906   0.00000   0.01341   0.01341   2.52675
   B28        2.32436  -0.00223   0.00000  -0.00113  -0.00113   2.32323
   B29        2.74010   0.00628   0.00000   0.00598   0.00598   2.74608
   B30        1.88973   0.07435   0.00000   0.06116   0.06116   1.95088
   B31        1.88973   0.07869   0.00000   0.06473   0.06473   1.95445
   B32        1.88973   0.07872   0.00000   0.06475   0.06475   1.95448
   B33        1.88973   0.08329   0.00000   0.06852   0.06852   1.95824
         Item               Value     Threshold  Converged?
 Maximum Force            0.231817     0.000450     NO 
 RMS     Force            0.079705     0.000300     NO 
 Maximum Displacement     0.082044     0.001800     NO 
 RMS     Displacement     0.052223     0.001200     NO 
 Predicted change in Energy=-1.012355D-01
 GradGradGradGradGradGradGradGradGradGradGradGradGradGradGradGradGradGrad

 ---------------------------------------------------------------------------------------------------
                            Z-MATRIX (ANGSTROMS AND DEGREES)
   CD    Cent   Atom    N1       Length/X        N2       Alpha/Y        N3        Beta/Z          J
 ---------------------------------------------------------------------------------------------------
      1      1  C 
      2      2  C        1   1.339313(     1)
      3      3  C        2   1.343416(     2)      1  120.000(    34)
      4      4  C        3   1.340108(     3)      2  120.000(    35)      1    0.000(    66)      0
      5      5  C        4   1.336205(     4)      3  120.000(    36)      2    0.000(    67)      0
      6      6  C        1   1.335371(     5)      2  119.978(    37)      3    1.717(    68)      0
      7      7  F        1   1.390531(     6)      2  120.000(    38)      3 -180.000(    69)      0
      8      8  H        2   1.032634(     7)      1  120.000(    39)      6 -178.283(    70)      0
      9      9  H        3   1.032097(     8)      2  120.000(    40)      1  180.000(    71)      0
     10     10  H        4   1.032284(     9)      3  120.000(    41)      2  180.000(    72)      0
     11     11  H        5   1.032095(    10)      4  120.000(    42)      3  180.000(    73)      0
     12     12  H        6   1.033272(    11)      1  119.916(    43)      2 -177.772(    74)      0
     13     13  O        1   4.201493(    12)      2  120.000(    44)      3 -180.000(    75)      0
     14     14  C       13   1.204842(    13)      1  179.900(    45)      2  180.000(    76)      0
     15     15  H       14   1.036807(    14)     13  120.000(    46)      1  -90.045(    77)      0
     16     16  H       14   1.036807(    15)     13  120.000(    47)      1   90.045(    78)      0
     17     17  H        7   2.119219(    16)      1  100.000(    48)      2   90.000(    79)      0
     18     18  N       17   1.003648(    17)      7  179.900(    49)      1   90.000(    80)      0
     19     19  C       18   1.337101(    18)     17  119.500(    50)      7    0.000(    81)      0
     20     20  O       19   1.229398(    19)     18  123.200(    51)     17 -180.000(    82)      0
     21     21  C       18   1.453168(    20)     17  121.900(    52)     19 -180.000(    83)      0
     22     22  H       21   1.032366(    21)     18  110.700(    53)     17 -180.000(    84)      0
     23     23  H       21   1.034252(    22)     18  110.700(    54)     17  -60.000(    85)      0
     24     24  H       21   1.034265(    23)     18  110.700(    55)     17   60.000(    86)      0
     25     25  H       19   1.036258(    24)     18  113.467(    56)     17    0.000(    87)      0
     26     26  H        7   2.119197(    25)      1  100.000(    57)      2  -90.000(    88)      0
     27     27  N       26   1.003641(    26)      7  179.900(    58)      1  -90.000(    89)      0
     28     28  C       27   1.337098(    27)     26  119.500(    59)      7  180.000(    90)      0
     29     29  O       28   1.229402(    28)     27  123.200(    60)     26 -180.000(    91)      0
     30     30  C       27   1.453163(    29)     26  121.900(    61)     28 -180.000(    92)      0
     31     31  H       30   1.032364(    30)     27  110.700(    62)     26  180.000(    93)      0
     32     32  H       30   1.034253(    31)     27  110.700(    63)     26  -60.000(    94)      0
     33     33  H       30   1.034265(    32)     27  110.700(    64)     26   60.000(    95)      0
     34     34  H       28   1.036257(    33)     27  113.467(    65)     26    0.000(    96)      0
 ---------------------------------------------------------------------------------------------------
                         Z-Matrix orientation:                         
 ---------------------------------------------------------------------
 Center     Atomic      Atomic             Coordinates (Angstroms)
 Number     Number       Type             X           Y           Z
 ---------------------------------------------------------------------
      1          6           0        0.000000    0.000000    0.000000
      2          6           0        0.000000    0.000000    1.339313
      3          6           0        1.163432    0.000000    2.011021
      4          6           0        2.323999    0.000000    1.340967
      5          6           0        2.323999    0.000000    0.004762
      6          6           0        1.156206   -0.034663   -0.667236
      7          9           0       -1.204236    0.000000   -0.695266
      8          1           0       -0.894287    0.000000    1.855630
      9          1           0        1.163432    0.000000    3.043118
     10          1           0        3.217983    0.000000    1.857109
     11          1           0        3.217820    0.000000   -0.511285
     12          1           0        1.156467    0.000170   -1.699920
     13          8           0       -3.638600    0.000000   -2.100747
     14          6           0       -4.680971    0.000000   -2.704988
     15          1           0       -5.129821    0.897901   -2.964364
     16          1           0       -5.129821   -0.897901   -2.964364
     17          1           0       -1.522932    2.087023   -0.879265
     18          7           0       -1.672988    3.075422   -0.967923
     19          6           0       -1.189247    3.721838   -2.033747
     20          8           0       -1.332984    4.929897   -2.210815
     21          6           0       -2.404971    3.833785    0.032469
     22          1           0       -2.456068    4.830758   -0.230614
     23          1           0       -3.370189    3.475072    0.129195
     24          1           0       -1.941004    3.766060    0.954343
     25          1           0       -0.682102    3.105790   -2.694897
     26          1           0       -1.522928   -2.087002   -0.879263
     27          7           0       -1.672984   -3.075394   -0.967920
     28          6           0       -2.353604   -3.725809   -0.018422
     29          8           0       -2.576719   -4.934144   -0.058100
     30          6           0       -1.170624   -3.829513   -2.103975
     31          1           0       -1.422347   -4.827173   -2.019808
     32          1           0       -1.569550   -3.468854   -2.987413
     33          1           0       -0.140356   -3.759842   -2.162276
     34          1           0       -2.674127   -3.112605    0.752989
 ---------------------------------------------------------------------
                    Distance matrix (angstroms):
                    1          2          3          4          5
     1  C    0.000000
     2  C    1.339313   0.000000
     3  C    2.323312   1.343416   0.000000
     4  C    2.683126   2.324000   1.340108   0.000000
     5  C    2.324004   2.679925   2.317755   1.336205   0.000000
     6  C    1.335371   2.316085   2.678491   2.323321   1.347785
     7  F    1.390531   2.364254   3.595808   4.073657   3.597010
     8  H    2.059882   1.032634   2.063578   3.259179   3.712557
     9  H    3.257935   2.063135   1.032097   2.060154   3.252464
[...]
     7  F    0.648226  -0.249605  -0.041911   0.005649  -0.034761  -0.241433
     8  H   -0.143330   0.523413  -0.022402  -0.015293   0.012144  -0.061747
     9  H    0.023445  -0.024644   0.362907  -0.080961  -0.002069   0.036419
    10  H    0.021384  -0.009156  -0.055366   0.449204  -0.059228  -0.007119
    11  H    0.024510   0.039527  -0.004898  -0.083462   0.371563  -0.034322
    12  H   -0.137368  -0.067364   0.014331  -0.012415  -0.035336   0.532832
    13  O    0.012782  -0.007431  -0.000741   0.000005  -0.000863  -0.008566
    14  C   -0.000095   0.000814   0.000232  -0.000028   0.000221   0.000769
    15  H   -0.000394  -0.000302   0.000017  -0.000010   0.000011   0.000399
    16  H   -0.000273   0.000252  -0.000008   0.000004   0.000006  -0.000222
    17  H    0.017495   0.011312  -0.024490   0.014833   0.014532  -0.036881
    18  N   -0.052788   0.007910   0.024188  -0.000937   0.006450   0.025060
    19  C    0.048982  -0.027730  -0.002602   0.001187  -0.012247   0.009875
    20  O    0.001419   0.000179  -0.000493   0.000017   0.000626  -0.001733
    21  C    0.002934   0.034599  -0.001596  -0.000164  -0.005938  -0.031637
    22  H    0.003777   0.001339  -0.000121   0.000053  -0.001068  -0.002108
    23  H    0.004112  -0.004400  -0.000212   0.000038  -0.000733   0.002348
    24  H   -0.001923   0.001135  -0.000562   0.001414   0.003239   0.000095
    25  H    0.023268  -0.011142  -0.003763   0.002454  -0.007818   0.007885
    26  H    0.017343  -0.048409   0.003212   0.018298  -0.020961   0.019674
    27  N   -0.046591   0.031695   0.010420  -0.002510   0.021341  -0.003727
    28  C    0.043607   0.021315  -0.007854   0.001434  -0.004361  -0.034460
    29  O    0.001451  -0.001573   0.000220  -0.000103  -0.000345   0.000175
    30  C    0.001597  -0.028222  -0.003740  -0.000560  -0.001240   0.031803
    31  H    0.004635  -0.001504  -0.000986   0.000003  -0.000421   0.000487
    32  H    0.005495   0.003526  -0.000573  -0.000004  -0.000735  -0.006551
    33  H   -0.007703  -0.005898   0.002218   0.002215   0.002029   0.010480
    34  H    0.022787   0.009202  -0.008202   0.002253  -0.003638  -0.011629
               7          8          9         10         11         12
     1  C    0.648226  -0.143330   0.023445   0.021384   0.024510  -0.137368
     2  C   -0.249605   0.523413  -0.024644  -0.009156   0.039527  -0.067364
     3  C   -0.041911  -0.022402   0.362907  -0.055366  -0.004898   0.014331
     4  C    0.005649  -0.015293  -0.080961   0.449204  -0.083462  -0.012415
     5  C   -0.034761   0.012144  -0.002069  -0.059228   0.371563  -0.035336
     6  C   -0.241433  -0.061747   0.036419  -0.007119  -0.034322   0.532832
     7  F    8.996048  -0.006944  -0.001148   0.000581  -0.000959  -0.007615
     8  H   -0.006944   0.464921  -0.002718   0.001110   0.001287   0.001096
     9  H   -0.001148  -0.002718   0.441244  -0.007052   0.000988   0.001286
    10  H    0.000581   0.001110  -0.007052   0.457384  -0.007492   0.001356
    11  H   -0.000959   0.001287   0.000988  -0.007492   0.444773  -0.005389
    12  H   -0.007615   0.001096   0.001286   0.001356  -0.005389   0.473346
    13  O    0.002409  -0.000207  -0.000001  -0.000001   0.000001  -0.000209
    14  C    0.000333   0.000007   0.000002   0.000002   0.000002   0.000015
    15  H   -0.000026   0.000014   0.000001  -0.000000   0.000001   0.000009
    16  H   -0.000053  -0.000009   0.000000   0.000000  -0.000001   0.000015
    17  H    0.018395  -0.004262   0.000045  -0.000500   0.000054   0.004476
    18  N   -0.019936  -0.000968   0.000220  -0.000044  -0.000089   0.002041
    19  C    0.000400   0.002123  -0.000144   0.000178  -0.000242  -0.002766
    20  O   -0.000033   0.000086  -0.000020  -0.000001   0.000018   0.000091
    21  C    0.002947  -0.000922   0.000050   0.000054  -0.000075   0.000241
    22  H   -0.000311   0.000355   0.000001   0.000009   0.000010  -0.000210
    23  H   -0.000303  -0.000363   0.000071   0.000003  -0.000015   0.000080
    24  H    0.000929  -0.002191  -0.000465  -0.000016   0.000050  -0.000475
    25  H   -0.003384   0.000377  -0.000088  -0.000021   0.000152  -0.009657
    26  H    0.027776   0.005904  -0.000484  -0.000325   0.000057  -0.005219
    27  N   -0.019633   0.002618  -0.000084  -0.000093   0.000330  -0.000723
    28  C   -0.002087  -0.003487  -0.000154   0.000176  -0.000177   0.002159
    29  O    0.000037   0.000115   0.000018  -0.000003  -0.000016   0.000048
    30  C    0.001733  -0.000488   0.000060   0.000004   0.000152  -0.001707
    31  H   -0.000536  -0.000180   0.000011   0.000009  -0.000002   0.000421
    32  H   -0.000208   0.000052  -0.000017   0.000001   0.000083  -0.000543
    33  H    0.000565  -0.000333   0.000016   0.000018  -0.000654  -0.001369
    34  H   -0.003285  -0.009631   0.000146  -0.000018  -0.000083   0.000357
              13         14         15         16         17         18
     1  C    0.012782  -0.000095  -0.000394  -0.000273   0.017495  -0.052788
     2  C   -0.007431   0.000814  -0.000302   0.000252   0.011312   0.007910
     3  C   -0.000741   0.000232   0.000017  -0.000008  -0.024490   0.024188
     4  C    0.000005  -0.000028  -0.000010   0.000004   0.014833  -0.000937
     5  C   -0.000863   0.000221   0.000011   0.000006   0.014532   0.006450
     6  C   -0.008566   0.000769   0.000399  -0.000222  -0.036881   0.025060
     7  F    0.002409   0.000333  -0.000026  -0.000053   0.018395  -0.019936
     8  H   -0.000207   0.000007   0.000014  -0.000009  -0.004262  -0.000968
     9  H   -0.000001   0.000002   0.000001   0.000000   0.000045   0.000220
    10  H   -0.000001   0.000002  -0.000000   0.000000  -0.000500  -0.000044
    11  H    0.000001   0.000002   0.000001  -0.000001   0.000054  -0.000089
    12  H   -0.000209   0.000015   0.000009   0.000015   0.004476   0.002041
    13  O    8.154883   0.260191  -0.085836  -0.085740   0.024541  -0.002372
    14  C    0.260191   4.911797   0.399356   0.399279  -0.009122   0.000833
    15  H   -0.085836   0.399356   0.655211  -0.102944   0.002127   0.000451
    16  H   -0.085740   0.399279  -0.102944   0.655270  -0.000680   0.000165
    17  H    0.024541  -0.009122   0.002127  -0.000680   0.622563   0.303450
    18  N   -0.002372   0.000833   0.000451   0.000165   0.303450   7.167598
    19  C   -0.003175   0.000921  -0.000359  -0.000040  -0.120477   0.143225
    20  O    0.000059  -0.000161   0.000069  -0.000024   0.008307  -0.163113
    21  C   -0.000745   0.001931  -0.000836   0.000280  -0.073562   0.110335
    22  H    0.000158   0.000317  -0.000388   0.000062  -0.034300  -0.104767
    23  H   -0.000417  -0.000004  -0.000030  -0.000088  -0.005843  -0.041983
    24  H   -0.000165  -0.000204   0.000188  -0.000076   0.028451  -0.046332
    25  H   -0.000417  -0.000369   0.000272  -0.000182  -0.005177  -0.210837
    26  H    0.024368  -0.009486  -0.000669   0.002164  -0.057725   0.009109
    27  N   -0.002503   0.000916   0.000186   0.000468   0.008636  -0.000469
    28  C   -0.003087   0.000991  -0.000043  -0.000387   0.007253  -0.001039
    29  O    0.000062  -0.000164  -0.000025   0.000066   0.000094  -0.000001
    30  C   -0.000460   0.001999   0.000272  -0.000846   0.005362  -0.000848
    31  H    0.000190   0.000319   0.000062  -0.000384   0.000411  -0.000065
    32  H   -0.000517  -0.000002  -0.000095  -0.000024   0.000716  -0.000180
    33  H   -0.000184  -0.000221  -0.000076   0.000194  -0.000858   0.000129
    34  H   -0.000424  -0.000400  -0.000184   0.000279   0.002327  -0.000521
              19         20         21         22         23         24
     1  C    0.048982   0.001419   0.002934   0.003777   0.004112  -0.001923
     2  C   -0.027730   0.000179   0.034599   0.001339  -0.004400   0.001135
     3  C   -0.002602  -0.000493  -0.001596  -0.000121  -0.000212  -0.000562
     4  C    0.001187   0.000017  -0.000164   0.000053   0.000038   0.001414
     5  C   -0.012247   0.000626  -0.005938  -0.001068  -0.000733   0.003239
     6  C    0.009875  -0.001733  -0.031637  -0.002108   0.002348   0.000095
     7  F    0.000400  -0.000033   0.002947  -0.000311  -0.000303   0.000929
     8  H    0.002123   0.000086  -0.000922   0.000355  -0.000363  -0.002191
     9  H   -0.000144  -0.000020   0.000050   0.000001   0.000071  -0.000465
    10  H    0.000178  -0.000001   0.000054   0.000009   0.000003  -0.000016
    11  H   -0.000242   0.000018  -0.000075   0.000010  -0.000015   0.000050
    12  H   -0.002766   0.000091   0.000241  -0.000210   0.000080  -0.000475
    13  O   -0.003175   0.000059  -0.000745   0.000158  -0.000417  -0.000165
    14  C    0.000921  -0.000161   0.001931   0.000317  -0.000004  -0.000204
    15  H   -0.000359   0.000069  -0.000836  -0.000388  -0.000030   0.000188
    16  H   -0.000040  -0.000024   0.000280   0.000062  -0.000088  -0.000076
    17  H   -0.120477   0.008307  -0.073562  -0.034300  -0.005843   0.028451
    18  N    0.143225  -0.163113   0.110335  -0.104767  -0.041983  -0.046332
    19  C    4.994761   0.456140  -0.039595   0.034813  -0.007831  -0.011896
    20  O    0.456140   8.219973  -0.031681   0.031460  -0.002044  -0.002995
    21  C   -0.039595  -0.031681   5.271337   0.442693   0.411116   0.382684
    22  H    0.034813   0.031460   0.442693   0.478979  -0.026720  -0.028571
    23  H   -0.007831  -0.002044   0.411116  -0.026720   0.547069  -0.057538
    24  H   -0.011896  -0.002995   0.382684  -0.028571  -0.057538   0.561439
    25  H    0.432864  -0.035400  -0.005249   0.010316  -0.002200  -0.001592
    26  H    0.007288   0.000070   0.005076   0.000440   0.000660  -0.000691
    27  N   -0.001000  -0.000001  -0.000795  -0.000061  -0.000186   0.000121
    28  C   -0.000854  -0.000003  -0.000295  -0.000014   0.000005   0.000017
    29  O   -0.000004  -0.000000  -0.000002  -0.000000  -0.000002   0.000001
    30  C   -0.000351  -0.000001  -0.000533  -0.000015  -0.000048   0.000051
    31  H   -0.000013  -0.000000  -0.000012   0.000001  -0.000003  -0.000000
    32  H   -0.000000  -0.000002  -0.000056  -0.000003  -0.000010   0.000005
    33  H    0.000044   0.000001   0.000065   0.000001   0.000003  -0.000003
    34  H   -0.000274   0.000001   0.000322   0.000023  -0.000178   0.000038
              25         26         27         28         29         30
     1  C    0.023268   0.017343  -0.046591   0.043607   0.001451   0.001597
     2  C   -0.011142  -0.048409   0.031695   0.021315  -0.001573  -0.028222
     3  C   -0.003763   0.003212   0.010420  -0.007854   0.000220  -0.003740
     4  C    0.002454   0.018298  -0.002510   0.001434  -0.000103  -0.000560
     5  C   -0.007818  -0.020961   0.021341  -0.004361  -0.000345  -0.001240
     6  C    0.007885   0.019674  -0.003727  -0.034460   0.000175   0.031803
     7  F   -0.003384   0.027776  -0.019633  -0.002087   0.000037   0.001733
     8  H    0.000377   0.005904   0.002618  -0.003487   0.000115  -0.000488
     9  H   -0.000088  -0.000484  -0.000084  -0.000154   0.000018   0.000060
    10  H   -0.000021  -0.000325  -0.000093   0.000176  -0.000003   0.000004
    11  H    0.000152   0.000057   0.000330  -0.000177  -0.000016   0.000152
    12  H   -0.009657  -0.005219  -0.000723   0.002159   0.000048  -0.001707
    13  O   -0.000417   0.024368  -0.002503  -0.003087   0.000062  -0.000460
    14  C   -0.000369  -0.009486   0.000916   0.000991  -0.000164   0.001999
    15  H    0.000272  -0.000669   0.000186  -0.000043  -0.000025   0.000272
    16  H   -0.000182   0.002164   0.000468  -0.000387   0.000066  -0.000846
    17  H   -0.005177  -0.057725   0.008636   0.007253   0.000094   0.005362
    18  N   -0.210837   0.009109  -0.000469  -0.001039  -0.000001  -0.000848
    19  C    0.432864   0.007288  -0.001000  -0.000854  -0.000004  -0.000351
    20  O   -0.035400   0.000070  -0.000001  -0.000003  -0.000000  -0.000001
    21  C   -0.005249   0.005076  -0.000795  -0.000295  -0.000002  -0.000533
    22  H    0.010316   0.000440  -0.000061  -0.000014  -0.000000  -0.000015
    23  H   -0.002200   0.000660  -0.000186   0.000005  -0.000002  -0.000048
    24  H   -0.001592  -0.000691   0.000121   0.000017   0.000001   0.000051
    25  H    0.664567   0.002222  -0.000513  -0.000269   0.000001   0.000330
    26  H    0.002222   0.628358   0.295584  -0.119225   0.008513  -0.070055
    27  N   -0.000513   0.295584   7.167972   0.146315  -0.163176   0.114404
    28  C   -0.000269  -0.119225   0.146315   4.990576   0.455753  -0.041593
    29  O    0.000001   0.008513  -0.163176   0.455753   8.220360  -0.031875
    30  C    0.000330  -0.070055   0.114404  -0.041593  -0.031875   5.266676
    31  H    0.000023  -0.034908  -0.104389   0.034951   0.031408   0.442406
    32  H   -0.000177  -0.005688  -0.043243  -0.008212  -0.002018   0.412131
    33  H    0.000039   0.027417  -0.046635  -0.011177  -0.003045   0.382817
    34  H   -0.000064  -0.004880  -0.210249   0.432862  -0.035262  -0.005253
              31         32         33         34
     1  C    0.004635   0.005495  -0.007703   0.022787
     2  C   -0.001504   0.003526  -0.005898   0.009202
     3  C   -0.000986  -0.000573   0.002218  -0.008202
     4  C    0.000003  -0.000004   0.002215   0.002253
     5  C   -0.000421  -0.000735   0.002029  -0.003638
     6  C    0.000487  -0.006551   0.010480  -0.011629
     7  F   -0.000536  -0.000208   0.000565  -0.003285
     8  H   -0.000180   0.000052  -0.000333  -0.009631
     9  H    0.000011  -0.000017   0.000016   0.000146
    10  H    0.000009   0.000001   0.000018  -0.000018
    11  H   -0.000002   0.000083  -0.000654  -0.000083
    12  H    0.000421  -0.000543  -0.001369   0.000357
    13  O    0.000190  -0.000517  -0.000184  -0.000424
    14  C    0.000319  -0.000002  -0.000221  -0.000400
    15  H    0.000062  -0.000095  -0.000076  -0.000184
    16  H   -0.000384  -0.000024   0.000194   0.000279
    17  H    0.000411   0.000716  -0.000858   0.002327
    18  N   -0.000065  -0.000180   0.000129  -0.000521
    19  C   -0.000013  -0.000000   0.000044  -0.000274
    20  O   -0.000000  -0.000002   0.000001   0.000001
    21  C   -0.000012  -0.000056   0.000065   0.000322
    22  H    0.000001  -0.000003   0.000001   0.000023
    23  H   -0.000003  -0.000010   0.000003  -0.000178
    24  H   -0.000000   0.000005  -0.000003   0.000038
    25  H    0.000023  -0.000177   0.000039  -0.000064
    26  H   -0.034908  -0.005688   0.027417  -0.004880
    27  N   -0.104389  -0.043243  -0.046635  -0.210249
    28  C    0.034951  -0.008212  -0.011177   0.432862
    29  O    0.031408  -0.002018  -0.003045  -0.035262
    30  C    0.442406   0.412131   0.382817  -0.005253
    31  H    0.479267  -0.026702  -0.028422   0.010318
    32  H   -0.026702   0.547130  -0.057740  -0.002187
    33  H   -0.028422  -0.057740   0.561686  -0.001612
    34  H    0.010318  -0.002187  -0.001612   0.663706
 Mulliken charges:
               1
     1  C   -0.504004
     2  C    0.122559
     3  C   -0.235135
     4  C   -0.454686
     5  C   -0.208860
     6  C    0.129824
     7  F   -0.071861
     8  H    0.259853
     9  H    0.253119
    10  H    0.214961
    11  H    0.254319
    12  H    0.254165
    13  O   -0.275589
    14  C    0.039006
    15  H    0.133572
    16  H    0.133476
    17  H    0.278500
    18  N   -0.153875
    19  C    0.098799
    20  O   -0.480811
    21  C   -0.472972
    22  H    0.193850
    23  H    0.185647
    24  H    0.175840
    25  H    0.153546
    26  H    0.275191
    27  N   -0.154424
    28  C    0.101365
    29  O   -0.480710
    30  C   -0.473965
    31  H    0.193605
    32  H    0.186349
    33  H    0.175994
    34  H    0.153352
 Sum of Mulliken charges =  -0.00000
 Mulliken charges with hydrogens summed into heavy atoms:
               1
     1  C   -0.504004
     2  C    0.382412
     3  C    0.017984
     4  C   -0.239724
     5  C    0.045459
     6  C    0.383989
     7  F   -0.071861
    13  O   -0.275589
    14  C    0.306055
    18  N    0.124624
    19  C    0.252345
    20  O   -0.480811
    21  C    0.082365
    27  N    0.120767
    28  C    0.254716
    29  O   -0.480710
    30  C    0.081983
 Electronic spatial extent (au):  <R**2>=           6721.2493
 Charge=             -0.0000 electrons
 Dipole moment (field-independent basis, Debye):
    X=              0.0347    Y=              1.2255    Z=             -0.0158  Tot=              1.2261
 Quadrupole moment (field-independent basis, Debye-Ang):
   XX=           -178.1595   YY=            -68.6895   ZZ=            -89.6772
   XY=             -0.1471   XZ=            -19.1855   YZ=             -0.0355
 Traceless Quadrupole moment (field-independent basis, Debye-Ang):
   XX=            -65.9841   YY=             43.4859   ZZ=             22.4982
   XY=             -0.1471   XZ=            -19.1855   YZ=             -0.0355
 Octapole moment (field-independent basis, Debye-Ang**2):
  XXX=             -0.0086  YYY=           -113.5181  ZZZ=             -0.1114  XYY=              0.5165
  XXY=             55.8925  XXZ=             -0.5554  XZZ=             -0.0083  YZZ=              5.5227
  YYZ=              0.0274  XYZ=             23.5543
 Hexadecapole moment (field-independent basis, Debye-Ang**3):
 XXXX=          -7433.5729 YYYY=          -2179.1631 ZZZZ=           -665.9394 XXXY=             -3.5207
 XXXZ=           -609.2411 YYYX=             -2.3154 YYYZ=             -0.0121 ZZZX=             -8.5776
 ZZZY=             -0.0685 XXYY=          -1468.4375 XXZZ=           -933.5854 YYZZ=           -607.6837
 XXYZ=             -0.4776 YYXZ=            -14.8789 ZZXY=              0.2579
 N-N= 1.127371560666D+03 E-N=-4.277275997485D+03  KE= 8.612028260021D+02
 1\1\GINC-LOCALHOST\POpt\RM062X\6-311++G(d,p)\C11H17F1N2O3\LYWU\06-Jan-
 2025\1\\# opt=z-matrix 6-311++g(d,p) m062x scrf=(solvent=dichloroethan
 e)\\test\\0,1\C\C,1,B1\C,2,B2,1,120.00000011\C,3,B3,2,120.,1,0.,0\C,4,
 B4,3,119.99999989,2,0.,0\C,1,B5,2,119.97770821,3,1.71722694,0\F,1,B6,2
 ,119.9999999,3,-180.,0\H,2,B7,1,120.00000011,6,-178.28277306,0\H,3,B8,
 2,120.00000011,1,180.,0\H,4,B9,3,120.,2,180.,0\H,5,B10,4,120.00000011,
 3,180.,0\H,6,B11,1,119.91553063,2,-177.77151684,0\O,1,B12,2,119.999999
 9,3,-180.,0\C,13,B13,1,179.90000005,2,180.,0\H,14,B14,13,119.99996989,
 1,-90.04490481,0\H,14,B15,13,119.99996989,1,90.04490481,0\H,7,B16,1,10
 0.00000001,2,90.,0\N,17,B17,7,179.9,1,90.,0\C,18,B18,17,119.5,7,0.,0\O
 ,19,B19,18,123.2,17,-180.,0\C,18,B20,17,121.9,19,-180.,0\H,21,B21,18,1
 10.7,17,-180.,0\H,21,B22,18,110.7,17,-60.,0\H,21,B23,18,110.7,17,60.,0
 \H,19,B24,18,113.46721803,17,0.,0\H,7,B25,1,100.00000001,2,-90.,0\N,26
 ,B26,7,179.9,1,-90.,0\C,27,B27,26,119.5,7,180.,0\O,28,B28,27,123.2,26,
 -180.,0\C,27,B29,26,121.9,28,-180.,0\H,30,B30,27,110.7,26,180.,0\H,30,
 B31,27,110.7,26,-60.,0\H,30,B32,27,110.7,26,60.,0\H,28,B33,27,113.4672
 1803,26,0.,0\\B1=1.38799395\B2=1.39056089\B3=1.38766373\B4=1.38768889\
 B5=1.3880006\B6=1.35606103\B7=1.08421663\B8=1.08256464\B9=1.08312806\B
 10=1.08256963\B11=1.08427991\B12=4.73029424\B13=1.20419205\B14=1.10099
 234\B15=1.10099189\B16=2.13392785\B17=1.00821128\B18=1.35093428\B19=1.
 22133612\B20=1.45298086\B21=1.08469395\B22=1.09195961\B23=1.09206803\B
 24=1.09922368\B25=2.13031615\B26=1.00822012\B27=1.35091558\B28=1.22135
 326\B29=1.45296479\B30=1.08469544\B31=1.09196403\B32=1.09207179\B33=1.
 09922981\\Version=ES64L-G16RevB.01\State=1-A\HF=-864.3019627\RMSD=1.96
 8e-09\RMSF=5.128e-03\Dipole=0.414927,0.0149447,0.2455701\Quadrupole=27
 .7368955,-46.3078439,18.5709484,-9.6853335,7.9505737,16.8223834\PG=C01
  [X(C11H17F1N2O3)]\\@


 EVERYTHING'S GOT A MORAL, IF ONLY YOU CAN FIND IT.

                                    -- LEWIS CARROL, ALICE IN WONDERLAND
 Job cpu time:       0 days  6 hours  3 minutes 52.7 seconds.
 Elapsed time:       0 days  1 hours 31 minutes 10.5 seconds.
 File lengths (MBytes):  RWF=    462 Int=      0 D2E=      0 Chk=     22 Scr=      1
 Normal termination of Gaussian 16 at Mon Jan  6 20:13:55 2025.
