 Entering Gaussian System, Link 0=g16
 Input=model_H3.gjf
 Output=model_H3.log
 Initial command:
 /home/lywu/software/g16/l1.exe "/home/lywu/software/g16/scr/Gau-5922.inp" -scrdir="/home/lywu/software/g16/scr/"
 Entering Link 1 = /home/lywu/software/g16/l1.exe PID=      5928.
  
 Copyright (c) 1988-2017, Gaussian, Inc.  All Rights Reserved.
  
 This is part of the Gaussian(R) 16 program.  It is based on
 the Gaussian(R) 09 system (copyright 2009, Gaussian, Inc.),
 the Gaussian(R) 03 system (copyright 2003, Gaussian, Inc.),
 the Gaussian(R) 98 system (copyright 1998, Gaussian, Inc.),
 the Gaussian(R) 94 system (copyright 1995, Gaussian, Inc.),
 the Gaussian 92(TM) system (copyright 1992, Gaussian, Inc.),
 the Gaussian 90(TM) system (copyright 1990, Gaussian, Inc.),
 the Gaussian 88(TM) system (copyright 1988, Gaussian, Inc.),
 the Gaussian 86(TM) system (copyright 1986, Carnegie Mellon
 University), and the Gaussian 82(TM) system (copyright 1983,
 Carnegie Mellon University). Gaussian is a federally registered
 trademark of Gaussian, Inc.
  
 This software contains proprietary and confidential information,
 including trade secrets, belonging to Gaussian, Inc.
  
 This software is provided under written license and may be
 used, copied, transmitted, or stored only in accord with that
 written license.
  
 The following legend is applicable only to US Government
 contracts under FAR:
  
                    RESTRICTED RIGHTS LEGEND
  
 Use, reproduction and disclosure by the US Government is
 subject to restrictions as set forth in subparagraphs (a)
 and (c) of the Commercial Computer Software - Restricted
 Rights clause in FAR 52.227-19.
  
 Gaussian, Inc.
 340 Quinnipiac St., Bldg. 40, Wallingford CT 06492
  
  
 ---------------------------------------------------------------
 Warning -- This program may not be used in any manner that
 competes with the business of Gaussian, Inc. or will provide
 assistance to any competitor of Gaussian, Inc.  The licensee
 of this program is prohibited from giving any competitor of
 Gaussian, Inc. access to this program.  By using this program,
 the user acknowledges that Gaussian, Inc. is engaged in the
 business of creating and licensing software in the field of
 computational chemistry and represents and warrants to the
 licensee that it is not a competitor of Gaussian, Inc. and that
 it will not use this program in any manner prohibited above.
 ---------------------------------------------------------------
  

 Cite this work as:
 Gaussian 16, Revision B.01,
 M. J. Frisch, G. W. Trucks, H. B. Schlegel, G. E. Scuseria, 
 M. A. Robb, J. R. Cheeseman, G. Scalmani, V. Barone, 
 G. A. Petersson, H. Nakatsuji, X. Li, M. Caricato, A. V. Marenich, 
 J. Bloino, B. G. Janesko, R. Gomperts, B. Mennucci, H. P. Hratchian, 
 J. V. Ortiz, A. F. Izmaylov, J. L. Sonnenberg, D. Williams-Young, 
 F. Ding, F. Lipparini, F. Egidi, J. Goings, B. Peng, A. Petrone, 
 T. Henderson, D. Ranasinghe, V. G. Zakrzewski, J. Gao, N. Rega, 
 G. Zheng, W. Liang, M. Hada, M. Ehara, K. Toyota, R. Fukuda, 
 J. Hasegawa, M. Ishida, T. Nakajima, Y. Honda, O. Kitao, H. Nakai, 
 T. Vreven, K. Throssell, J. A. Montgomery, Jr., J. E. Peralta, 
 F. Ogliaro, M. J. Bearpark, J. J. Heyd, E. N. Brothers, K. N. Kudin, 
 V. N. Staroverov, T. A. Keith, R. Kobayashi, J. Normand, 
 K. Raghavachari, A. P. Rendell, J. C. Burant, S. S. Iyengar, 
 J. Tomasi, M. Cossi, J. M. Millam, M. Klene, C. Adamo, R. Cammi, 
 J. W. Ochterski, R. L. Martin, K. Morokuma, O. Farkas, 
 J. B. Foresman, and D. J. Fox, Gaussian, Inc., Wallingford CT, 2016.
 
 ******************************************
 Gaussian 16:  ES64L-G16RevB.01 20-Dec-2017
                 6-Jan-2025 
 ******************************************
 %mem=4GB
 %nproc=4
 Will use up to    4 processors via shared memory.
 ----------------------------------------------------------------------
 # m062x 6-311++G(d,p) opt=(recalc=5,z-matrix,loose) scrf=(solvent=dich
 loroethane)
 ----------------------------------------------------------------------
 1/7=-1,10=7,18=40,26=3,38=1,71=5/1,3;
 2/12=2,17=6,18=5,29=3,40=1/2;
 3/5=4,6=6,7=1111,11=2,25=1,30=1,70=2201,71=2,72=10,74=-55,140=1/1,2,3;
 4//1;
 5/5=2,38=5,53=10/2;
 8/6=4,10=90,11=11/1;
 11/6=1,8=1,9=11,15=111,16=1/1,2,10;
 10/6=1/2;
 6/7=2,8=2,9=2,10=2,28=1/1;
 7/10=1,25=1/1,2,3,16;
 1/7=-1,10=7,18=40,26=3,71=5/3(3);
 2/29=3/2;
 7/9=1,25=1,44=-1/16;
 99//99;
 2/29=3/2;
 3/5=4,6=6,7=1111,11=2,25=1,30=1,70=2205,71=2,72=10,74=-55,140=1/1,2,3;
 4/5=5,16=3,69=1/1;
 5/5=2,38=5,53=10/2;
 8/6=4,10=90,11=11/1;
 11/6=1,8=1,9=11,15=111,16=1/1,2,10;
 10/6=1/2;
 7/10=1,25=1/1,2,3,16;
 1/7=-1,18=40,26=3,71=5/3(-8);
 2/29=3/2;
 6/7=2,8=2,9=2,10=2,19=2,28=1/1;
 7/9=1,25=1,44=-1/16;
 99/9=1/99;
 ----
 test
 ----
 Symbolic Z-matrix:
 Charge =  0 Multiplicity = 1
 C1
 C2                   1    d1
 C3                   2    d2       1     120. 
 C4                   3    d3       2     120.     1     0.       0
 C5                   4    d4       3     120.     2     0.       0
 C6                   5    d5       4     120.     3     0.       0
 F7                   1    d6       2     120.     3     180.     0
 H8                   2    d7       3     120.     4     180.     0
 H9                   3    d8       4     120.     5     180.     0
 H10                  4    d9       5     120.     6     180.     0
 H11                  5    d10      6     120.     1     180.     0
 H12                  6    d11      1     120.     2     180.     0
 O13                  7    d12      1     179.9    3     180.     0
 C14                  13   d13      1     179.9    2     180.     0
 H15                  14   d14      1     120.     2     90.      0
 H16                  14   d15      1     120.     2    -90.      0
 H17                  7    d16      1     100.     2     90.      0
 Br18                 17   d17      7     160.     1     0.       0
 H19                  7    d18      1     100.     2    -30.      0
 Br20                 19   d19      7     160.     1     0.       0
 H21                  7    d20      1     100.     2    -150.     0
 Br22                 21   d21      7     160.     1     0.       0
       Variables:
  d1                    1.3                      
  d2                    1.3                      
  d3                    1.3                      
  d4                    1.3                      
  d5                    1.3                      
  d6                    1.4                      
  d7                    1.                       
  d8                    1.                       
  d9                    1.                       
  d10                   1.                       
  d11                   1.                       
  d12                   2.8                      
  d13                   1.2                      
  d14                   1.                       
  d15                   1.                       
  d16                   2.3                      
  d17                   1.4                      
  d18                   2.3                      
  d19                   1.4                      
  d20                   2.3                      
  d21                   1.4                      
 

 GradGradGradGradGradGradGradGradGradGradGradGradGradGradGradGradGradGrad
 Berny optimization.
 Initialization pass.
                       ----------------------------
                       !    Initial Parameters    !
                       ! (Angstroms and Degrees)  !
 ----------------------                            ----------------------
 !      Name          Value   Derivative information (Atomic Units)     !
 ------------------------------------------------------------------------
 !       d1          1.3      calculate D2E/DX2 analytically            !
 !       d2          1.3      calculate D2E/DX2 analytically            !
 !       d3          1.3      calculate D2E/DX2 analytically            !
 !       d4          1.3      calculate D2E/DX2 analytically            !
 !       d5          1.3      calculate D2E/DX2 analytically            !
 !       d6          1.4      calculate D2E/DX2 analytically            !
 !       d7          1.0      calculate D2E/DX2 analytically            !
 !       d8          1.0      calculate D2E/DX2 analytically            !
 !       d9          1.0      calculate D2E/DX2 analytically            !
 !       d10         1.0      calculate D2E/DX2 analytically            !
 !       d11         1.0      calculate D2E/DX2 analytically            !
 !       d12         2.8      calculate D2E/DX2 analytically            !
 !       d13         1.2      calculate D2E/DX2 analytically            !
 !       d14         1.0      calculate D2E/DX2 analytically            !
 !       d15         1.0      calculate D2E/DX2 analytically            !
 !       d16         2.3      calculate D2E/DX2 analytically            !
 !       d17         1.4      calculate D2E/DX2 analytically            !
 !       d18         2.3      calculate D2E/DX2 analytically            !
 !       d19         1.4      calculate D2E/DX2 analytically            !
 !       d20         2.3      calculate D2E/DX2 analytically            !
 !       d21         1.4      calculate D2E/DX2 analytically            !
 ------------------------------------------------------------------------
 Trust Radius=3.00D-01 FncErr=1.00D-07 GrdErr=1.00D-06 EigMax=2.50D+02 EigMin=1.00D-04
 Number of steps in this run=     31 maximum allowed number of steps=    100.
 GradGradGradGradGradGradGradGradGradGradGradGradGradGradGradGradGradGrad

 ---------------------------------------------------------------------------------------------------
                            Z-MATRIX (ANGSTROMS AND DEGREES)
   CD    Cent   Atom    N1       Length/X        N2       Alpha/Y        N3        Beta/Z          J
 ---------------------------------------------------------------------------------------------------
      1      1  C 
      2      2  C        1   1.300000(     1)
      3      3  C        2   1.300000(     2)      1  120.000(    22)
      4      4  C        3   1.300000(     3)      2  120.000(    23)      1    0.000(    42)      0
      5      5  C        4   1.300000(     4)      3  120.000(    24)      2    0.000(    43)      0
      6      6  C        5   1.300000(     5)      4  120.000(    25)      3    0.000(    44)      0
      7      7  F        1   1.400000(     6)      2  120.000(    26)      3  180.000(    45)      0
      8      8  H        2   1.000000(     7)      3  120.000(    27)      4  180.000(    46)      0
      9      9  H        3   1.000000(     8)      4  120.000(    28)      5  180.000(    47)      0
     10     10  H        4   1.000000(     9)      5  120.000(    29)      6  180.000(    48)      0
     11     11  H        5   1.000000(    10)      6  120.000(    30)      1  180.000(    49)      0
     12     12  H        6   1.000000(    11)      1  120.000(    31)      2  180.000(    50)      0
     13     13  O        7   2.800000(    12)      1  179.900(    32)      3  180.000(    51)      0
     14     14  C       13   1.200000(    13)      1  179.900(    33)      2  180.000(    52)      0
     15     15  H       14   1.000000(    14)      1  120.000(    34)      2   90.000(    53)      0
     16     16  H       14   1.000000(    15)      1  120.000(    35)      2  -90.000(    54)      0
     17     17  H        7   2.300000(    16)      1  100.000(    36)      2   90.000(    55)      0
     18     18  Br      17   1.400000(    17)      7  160.000(    37)      1    0.000(    56)      0
     19     19  H        7   2.300000(    18)      1  100.000(    38)      2  -30.000(    57)      0
     20     20  Br      19   1.400000(    19)      7  160.000(    39)      1    0.000(    58)      0
     21     21  H        7   2.300000(    20)      1  100.000(    40)      2 -150.000(    59)      0
     22     22  Br      21   1.400000(    21)      7  160.000(    41)      1    0.000(    60)      0
 ---------------------------------------------------------------------------------------------------
                         Z-Matrix orientation:                         
 ---------------------------------------------------------------------
 Center     Atomic      Atomic             Coordinates (Angstroms)
 Number     Number       Type             X           Y           Z
 ---------------------------------------------------------------------
      1          6           0        0.000000    0.000000    0.000000
      2          6           0        0.000000    0.000000    1.300000
      3          6           0        1.125833    0.000000    1.950000
      4          6           0        2.251666    0.000000    1.300000
      5          6           0        2.251666    0.000000   -0.000000
      6          6           0        1.125833    0.000000   -0.650000
      7          9           0       -1.212436   -0.000000   -0.700000
      8          1           0       -0.866025   -0.000000    1.800000
      9          1           0        1.125833   -0.000000    2.950000
     10          1           0        3.117691   -0.000000    1.800000
     11          1           0        3.117691   -0.000000   -0.500000
     12          1           0        1.125833   -0.000000   -1.650000
     13          8           0       -3.634860   -0.000000   -2.104230
     14          6           0       -4.672340   -0.000000   -2.707251
     15          1           0       -5.104965    0.866025   -2.957922
     16          1           0       -5.104965   -0.866025   -2.957922
     17          1           0       -1.558318    2.265058   -0.899695
     18         35           0       -1.347781    3.643789   -0.778142
     19          1           0       -2.539117   -1.132529    0.799098
     20         35           0       -2.925588   -1.821894    1.954700
     21          1           0       -0.577519   -1.132529   -2.598489
     22         35           0        0.230026   -1.821894   -3.510983
 ---------------------------------------------------------------------
                    Distance matrix (angstroms):
                    1          2          3          4          5
     1  C    0.000000
     2  C    1.300000   0.000000
     3  C    2.251666   1.300000   0.000000
     4  C    2.600000   2.251666   1.300000   0.000000
     5  C    2.251666   2.600000   2.251666   1.300000   0.000000
     6  C    1.300000   2.251666   2.600000   2.251666   1.300000
     7  F    1.400000   2.338803   3.534119   4.000000   3.534119
     8  H    1.997498   1.000000   1.997498   3.157531   3.600000
     9  H    3.157531   1.997498   1.000000   1.997498   3.157531
    10  H    3.600000   3.157531   1.997498   1.000000   1.997498
    11  H    3.157531   3.600000   3.157531   1.997498   1.000000
    12  H    1.997498   3.157531   3.600000   3.157531   1.997498
    13  O    4.199999   4.980059   6.253077   6.799997   6.251317
    14  C    5.399997   6.155390   7.436988   7.999995   7.434452
    15  H    5.963218   6.703772   7.978755   8.543999   7.976172
    16  H    5.963218   6.703772   7.978755   8.543999   7.976172
    17  H    2.892800   3.521009   4.522822   4.948245   4.522822
    18  Br   3.962223   4.405949   5.180610   5.527376   5.180610
    19  H    2.892800   2.825003   4.004879   4.948245   4.987262
    20  Br   3.962223   3.508133   4.442221   5.527376   5.826157
    21  H    2.892800   4.100532   4.987262   4.948245   4.004879
    22  Br   3.962223   5.149541   5.826157   5.527376   4.442221
                    6          7          8          9         10
     6  C    0.000000
     7  F    2.338803   0.000000
     8  H    3.157531   2.523886   0.000000
     9  H    3.600000   4.334743   2.300000   0.000000
    10  H    3.157531   5.000000   3.983717   2.300000   0.000000
    11  H    1.997498   4.334743   4.600000   3.983717   2.300000
    12  H    1.000000   2.523886   3.983717   4.600000   3.983717
    13  O    4.977849   2.800000   4.786382   6.943301   7.799997
    14  C    6.152324   3.999999   5.899436   8.100821   8.999995
    15  H    6.700697   4.582575   6.430896   8.629970   9.539387
    16  H    6.700697   4.582575   6.430896   8.629970   9.539387
    17  H    3.521009   2.300000   3.591394   5.211076   5.855246
    18  Br   4.405949   3.647139   4.489554   5.770182   6.313830
    19  H    4.100532   2.300000   2.254698   4.397824   5.855246
    20  Br   5.149541   3.647139   2.754093   4.552354   6.313830
    21  H    2.825003   2.300000   4.551105   5.913523   5.855246
    22  Br   3.508133   3.647139   5.720767   6.772450   6.313830
                   11         12         13         14         15
    11  H    0.000000
    12  H    2.300000   0.000000
    13  O    6.940497   4.782313   0.000000
    14  C    8.096700   5.893776   1.200000   0.000000
    15  H    8.625744   6.425224   1.907878   1.000000   0.000000
    16  H    8.625744   6.425224   1.907878   1.000000   1.732051
    17  H    5.211076   3.591394   3.300517   4.253807   4.332700
    18  Br   5.770182   4.489554   4.501826   5.296353   5.155952
    19  H    5.913523   4.551105   3.303421   4.257669   4.969204
    20  Br   6.772450   5.720767   4.505250   5.301342   6.009031
    21  H    4.397824   2.254698   3.297612   4.249942   4.961973
    22  Br   4.552354   2.754093   4.498399   5.291359   5.999409
                   16         17         18         19         20
    16  H    0.000000
    17  H    5.159329   0.000000
    18  Br   6.261493   1.400000   0.000000
    19  H    4.557389   3.923195   5.169156   0.000000
    20  Br   5.458683   5.169156   6.311227   1.400000   0.000000
    21  H    4.549503   3.923195   5.169156   3.923195   5.169156
    22  Br   5.448090   5.169156   6.311227   5.169156   6.311227
                   21         22
    21  H    0.000000
    22  Br   1.400000   0.000000
 Stoichiometry    C7H10Br3FO
 Framework group  C1[X(C7H10Br3FO)]
 Deg. of freedom    60
 Full point group                 C1      NOp   1
 Largest Abelian subgroup         C1      NOp   1
 Largest concise Abelian subgroup C1      NOp   1
                         Standard orientation:                         
 ---------------------------------------------------------------------
 Center     Atomic      Atomic             Coordinates (Angstroms)
 Number     Number       Type             X           Y           Z
 ---------------------------------------------------------------------
      1          6           0       -0.002995    0.000000    1.170156
      2          6           0       -1.130146    0.000000    1.817869
      3          6           0       -1.132786    0.000000    3.117866
      4          6           0       -0.008275    0.000000    3.770151
      5          6           0        1.118876    0.000000    3.122439
      6          6           0        1.121516    0.000000    1.822441
      7          9           0       -0.000152    0.000000   -0.229841
      8          1           0       -1.995154    0.000000    1.316111
      9          1           0       -1.999825    0.000000    3.616106
     10          1           0       -0.010306    0.000000    4.770149
     11          1           0        1.983884    0.000000    3.624196
     12          1           0        1.988555    0.000000    1.324201
     13          8           0        0.010421    0.000000   -3.029821
     14          6           0        0.016349    0.000000   -4.229806
     15          1           0        0.018140    0.866025   -4.729803
     16          1           0        0.018140   -0.866025   -4.729803
     17          1           0        0.000659    2.265058   -0.629231
     18         35           0        0.000165    3.643789   -0.386124
     19          1           0       -1.960935   -1.132529   -0.633215
     20         35           0       -3.155442   -1.821894   -0.392532
     21          1           0        1.962253   -1.132529   -0.625247
     22         35           0        3.155772   -1.821894   -0.379716
 ---------------------------------------------------------------------
 Rotational constants (GHZ):           0.1960650           0.1904981           0.1561111
 Standard basis: 6-311++G(d,p) (5D, 7F)
 There are   430 symmetry adapted cartesian basis functions of A   symmetry.
 There are   412 symmetry adapted basis functions of A   symmetry.
   412 basis functions,   696 primitive gaussians,   430 cartesian basis functions
    87 alpha electrons       87 beta electrons
       nuclear repulsion energy      1603.3030283073 Hartrees.
 NAtoms=   22 NActive=   22 NUniq=   22 SFac= 1.00D+00 NAtFMM=   60 NAOKFM=F Big=F
 Integral buffers will be    131072 words long.
 Raffenetti 2 integral format.
 Two-electron integral symmetry is turned on.
 Force inversion solution in PCM.
 ------------------------------------------------------------------------------
 Polarizable Continuum Model (PCM)
 =================================
 Model                : PCM.
 Atomic radii         : UFF (Universal Force Field).
 Polarization charges : Total charges.
 Charge compensation  : None.
 Solution method      : Matrix inversion.
 Cavity type          : Scaled VdW (van der Waals Surface) (Alpha=1.100).
 Cavity algorithm     : GePol (No added spheres)
                        Default sphere list used, NSphG=   22.
                        Lebedev-Laikov grids with approx.  5.0 points / Ang**2.
                        Smoothing algorithm: York/Karplus (Gamma=1.0000).
                        Polarization charges: spherical gaussians, with
                                              point-specific exponents (IZeta= 3).
                        Self-potential: point-specific (ISelfS= 7).
                        Self-field    : sphere-specific E.n sum rule (ISelfD= 2).
 1st derivatives      : Analytical E(r).r(x)/FMM algorithm (CHGder, D1EAlg=3).
                        Cavity 1st derivative terms included.
 2nd derivatives      : Analytical E(r).r(xy)/FMM algorithm (CHGder, D2EAlg=3).
                        Cavity 2nd derivative terms included.
 Solvent              : DiChloroEthane, Eps=  10.125000 Eps(inf)=   2.087447
 ------------------------------------------------------------------------------
 One-electron integrals computed using PRISM.
 NBasis=   412 RedAO= T EigKep=  3.14D-06  NBF=   412
 NBsUse=   411 1.00D-06 EigRej=  3.76D-07 NBFU=   411
 ExpMin= 3.50D-02 ExpMax= 4.40D+05 ExpMxC= 1.51D+04 IAcc=3 IRadAn=         5 AccDes= 0.00D+00
 Harris functional with IExCor= 1009 and IRadAn=       5 diagonalized for initial guess.
 HarFok:  IExCor= 1009 AccDes= 0.00D+00 IRadAn=         5 IDoV= 1 UseB2=F ITyADJ=14
 ICtDFT=  3500011 ScaDFX=  1.000000  1.000000  1.000000  1.000000
 FoFCou: FMM=F IPFlag=           0 FMFlag=      100000 FMFlg1=           0
         NFxFlg=           0 DoJE=T BraDBF=F KetDBF=T FulRan=T
         wScrn=  0.000000 ICntrl=       500 IOpCl=  0 I1Cent=   200000004 NGrid=           0
         NMat0=    1 NMatS0=      1 NMatT0=    0 NMatD0=    1 NMtDS0=    0 NMtDT0=    0
 Petite list used in FoFCou.
 Requested convergence on RMS density matrix=1.00D-08 within 128 cycles.
 Requested convergence on MAX density matrix=1.00D-06.
 Requested convergence on             energy=1.00D-06.
 No special actions if energy rises.
 Inv3:  Mode=1 IEnd=    20077707.
 Iteration    1 A*A^-1 deviation from unit magnitude is 3.77D-15 for   2578.
 Iteration    1 A*A^-1 deviation from orthogonality  is 2.66D-15 for   2585   2256.
 Iteration    1 A^-1*A deviation from unit magnitude is 3.44D-15 for   2582.
 Iteration    1 A^-1*A deviation from orthogonality  is 2.83D-15 for   2580   2417.
 Error on total polarization charges =  0.02027
 SCF Done:  E(RM062X) =  -8170.15189077     A.U. after   15 cycles
            NFock= 15  Conv=0.13D-08     -V/T= 2.0010
 DoSCS=F DFT=T ScalE2(SS,OS)=  1.000000  1.000000
 Range of M.O.s used for correlation:     1   411
 NBasis=   412 NAE=    87 NBE=    87 NFC=     0 NFV=     0
 NROrb=    411 NOA=    87 NOB=    87 NVA=   324 NVB=   324

 **** Warning!!: The largest alpha MO coefficient is  0.16971699D+03

 Symmetrizing basis deriv contribution to polar:
 IMax=3 JMax=2 DiffMx= 0.00D+00
 G2DrvN: will do    23 centers at a time, making    1 passes.
 Calling FoFCou, ICntrl=  3107 FMM=F I1Cent=   0 AccDes= 0.00D+00.
 NEqPCM:  Using equilibrium solvation (IEInf=0, Eps=  10.1250, EpsInf=   2.0874)
 G2PCM: DoFxE=T DoFxN=T DoGrad=T DoDP/DQ/DG/TGxP=FFFF NFrqRd=   0 IEInf=0 SqF1=F DoCFld=F IF1Alg=4.
 End of G2Drv F.D. properties file   721 does not exist.
 End of G2Drv F.D. properties file   722 does not exist.
 End of G2Drv F.D. properties file   788 does not exist.
          IDoAtm=1111111111111111111111
 NEqPCM:  Using equilibrium solvation (IEInf=0, Eps=  10.1250, EpsInf=   2.0874)
          Differentiating once with respect to electric field.
                with respect to dipole field.
          Differentiating once with respect to nuclear coordinates.
 CalDSu exits because no D1Ps are significant.
          There are    69 degrees of freedom in the 1st order CPHF.  IDoFFX=6 NUNeed=     3.
     66 vectors produced by pass  0 Test12= 4.09D-14 1.45D-09 XBig12= 7.70D+01 3.63D+00.
 AX will form    66 AO Fock derivatives at one time.
     66 vectors produced by pass  1 Test12= 4.09D-14 1.45D-09 XBig12= 9.78D+00 5.46D-01.
     66 vectors produced by pass  2 Test12= 4.09D-14 1.45D-09 XBig12= 1.25D-01 6.82D-02.
     66 vectors produced by pass  3 Test12= 4.09D-14 1.45D-09 XBig12= 1.30D-03 6.42D-03.
     66 vectors produced by pass  4 Test12= 4.09D-14 1.45D-09 XBig12= 1.43D-05 5.14D-04.
     66 vectors produced by pass  5 Test12= 4.09D-14 1.45D-09 XBig12= 5.94D-08 2.49D-05.
     50 vectors produced by pass  6 Test12= 4.09D-14 1.45D-09 XBig12= 2.24D-10 1.64D-06.
     11 vectors produced by pass  7 Test12= 4.09D-14 1.45D-09 XBig12= 7.98D-13 8.01D-08.
      3 vectors produced by pass  8 Test12= 4.09D-14 1.45D-09 XBig12= 2.73D-15 4.18D-09.
 InvSVY:  IOpt=1 It=  1 EMax= 1.42D-14
 Solved reduced A of dimension   460 with    69 vectors.
 Isotropic polarizability for W=    0.000000      154.93 Bohr**3.
 End of Minotr F.D. properties file   721 does not exist.
 End of Minotr F.D. properties file   722 does not exist.
 End of Minotr F.D. properties file   788 does not exist.

 **********************************************************************

            Population analysis using the SCF Density.

 **********************************************************************

 Orbital symmetries:
       Occupied  (A) (A) (A) (A) (A) (A) (A) (A) (A) (A) (A) (A)
                 (A) (A) (A) (A) (A) (A) (A) (A) (A) (A) (A) (A)
                 (A) (A) (A) (A) (A) (A) (A) (A) (A) (A) (A) (A)
                 (A) (A) (A) (A) (A) (A) (A) (A) (A) (A) (A) (A)
                 (A) (A) (A) (A) (A) (A) (A) (A) (A) (A) (A) (A)
                 (A) (A) (A) (A) (A) (A) (A) (A) (A) (A) (A) (A)
                 (A) (A) (A) (A) (A) (A) (A) (A) (A) (A) (A) (A)
                 (A) (A) (A)
       Virtual   (A) (A) (A) (A) (A) (A) (A) (A) (A) (A) (A) (A)
                 (A) (A) (A) (A) (A) (A) (A) (A) (A) (A) (A) (A)
                 (A) (A) (A) (A) (A) (A) (A) (A) (A) (A) (A) (A)
                 (A) (A) (A) (A) (A) (A) (A) (A) (A) (A) (A) (A)
                 (A) (A) (A) (A) (A) (A) (A) (A) (A) (A) (A) (A)
                 (A) (A) (A) (A) (A) (A) (A) (A) (A) (A) (A) (A)
                 (A) (A) (A) (A) (A) (A) (A) (A) (A) (A) (A) (A)
                 (A) (A) (A) (A) (A) (A) (A) (A) (A) (A) (A) (A)
                 (A) (A) (A) (A) (A) (A) (A) (A) (A) (A) (A) (A)
                 (A) (A) (A) (A) (A) (A) (A) (A) (A) (A) (A) (A)
                 (A) (A) (A) (A) (A) (A) (A) (A) (A) (A) (A) (A)
                 (A) (A) (A) (A) (A) (A) (A) (A) (A) (A) (A) (A)
                 (A) (A) (A) (A) (A) (A) (A) (A) (A) (A) (A) (A)
                 (A) (A) (A) (A) (A) (A) (A) (A) (A) (A) (A) (A)
                 (A) (A) (A) (A) (A) (A) (A) (A) (A) (A) (A) (A)
                 (A) (A) (A) (A) (A) (A) (A) (A) (A) (A) (A) (A)
                 (A) (A) (A) (A) (A) (A) (A) (A) (A) (A) (A) (A)
                 (A) (A) (A) (A) (A) (A) (A) (A) (A) (A) (A) (A)
                 (A) (A) (A) (A) (A) (A) (A) (A) (A) (A) (A) (A)
                 (A) (A) (A) (A) (A) (A) (A) (A) (A) (A) (A) (A)
                 (A) (A) (A) (A) (A) (A) (A) (A) (A) (A) (A) (A)
                 (A) (A) (A) (A) (A) (A) (A) (A) (A) (A) (A) (A)
                 (A) (A) (A) (A) (A) (A) (A) (A) (A) (A) (A) (A)
                 (A) (A) (A) (A) (A) (A) (A) (A) (A) (A) (A) (A)
                 (A) (A) (A) (A) (A) (A) (A) (A) (A) (A) (A) (A)
                 (A) (A) (A) (A) (A) (A) (A) (A) (A) (A) (A) (A)
                 (A) (A) (A) (A) (A) (A) (A) (A) (A) (A) (A) (A)
 The electronic state is 1-A.
 Alpha  occ. eigenvalues -- -485.34262-485.34261-485.34123 -63.33510 -63.33509
 Alpha  occ. eigenvalues --  -63.33365 -57.16231 -57.16231 -57.16087 -57.16007
 Alpha  occ. eigenvalues --  -57.16007 -57.16005 -57.16004 -57.15863 -57.15863
 Alpha  occ. eigenvalues --  -25.26749 -19.64039 -10.61861 -10.61722 -10.52748
 Alpha  occ. eigenvalues --  -10.52745 -10.52428 -10.52417 -10.51690  -9.02247
 Alpha  occ. eigenvalues --   -9.02247  -9.02096  -6.84997  -6.84997  -6.84843
 Alpha  occ. eigenvalues --   -6.84052  -6.84052  -6.84045  -6.84045  -6.83901
 Alpha  occ. eigenvalues --   -6.83900  -2.88182  -2.88182  -2.88028  -2.87803
 Alpha  occ. eigenvalues --   -2.87803  -2.87798  -2.87798  -2.87649  -2.87647
 Alpha  occ. eigenvalues --   -2.86982  -2.86982  -2.86982  -2.86982  -2.86835
 Alpha  occ. eigenvalues --   -2.86835  -1.37264  -1.19232  -1.03514  -0.89828
 Alpha  occ. eigenvalues --   -0.88972  -0.88560  -0.88533  -0.88386  -0.75099
 Alpha  occ. eigenvalues --   -0.74308  -0.72851  -0.67042  -0.60603  -0.59972
 Alpha  occ. eigenvalues --   -0.59570  -0.58513  -0.54349  -0.53816  -0.53384
 Alpha  occ. eigenvalues --   -0.51562  -0.50609  -0.50167  -0.49893  -0.48202
 Alpha  occ. eigenvalues --   -0.47636  -0.44784  -0.42567  -0.36981  -0.36909
 Alpha  occ. eigenvalues --   -0.36830  -0.36736  -0.36723  -0.36679  -0.35161
 Alpha  occ. eigenvalues --   -0.33953  -0.33224
 Alpha virt. eigenvalues --   -0.00705  -0.00448   0.00765   0.01066   0.01503
 Alpha virt. eigenvalues --    0.01803   0.02105   0.02906   0.03017   0.03244
 Alpha virt. eigenvalues --    0.03621   0.03884   0.04176   0.04758   0.05556
 Alpha virt. eigenvalues --    0.05942   0.06140   0.06943   0.07110   0.07333
 Alpha virt. eigenvalues --    0.07537   0.07987   0.08377   0.08774   0.08880
 Alpha virt. eigenvalues --    0.09251   0.10346   0.11297   0.11442   0.12295
 Alpha virt. eigenvalues --    0.12450   0.12873   0.13523   0.13986   0.14170
 Alpha virt. eigenvalues --    0.14364   0.14568   0.15133   0.15797   0.16024
 Alpha virt. eigenvalues --    0.16206   0.16407   0.17080   0.17914   0.18010
 Alpha virt. eigenvalues --    0.18745   0.19120   0.20381   0.20520   0.21359
 Alpha virt. eigenvalues --    0.21902   0.21959   0.22666   0.22915   0.23195
 Alpha virt. eigenvalues --    0.25263   0.26183   0.26949   0.28228   0.29295
 Alpha virt. eigenvalues --    0.30882   0.31450   0.33158   0.34397   0.34514
 Alpha virt. eigenvalues --    0.35003   0.35458   0.35734   0.37671   0.38811
 Alpha virt. eigenvalues --    0.39133   0.40498   0.42884   0.43492   0.43590
 Alpha virt. eigenvalues --    0.44636   0.44762   0.45561   0.46312   0.46441
 Alpha virt. eigenvalues --    0.46932   0.47546   0.48415   0.48426   0.49335
 Alpha virt. eigenvalues --    0.50844   0.51359   0.52248   0.53755   0.55037
 Alpha virt. eigenvalues --    0.55560   0.57414   0.58408   0.58428   0.59931
 Alpha virt. eigenvalues --    0.60256   0.61278   0.61499   0.61745   0.62130
 Alpha virt. eigenvalues --    0.62977   0.63206   0.63900   0.64192   0.65005
 Alpha virt. eigenvalues --    0.66699   0.67069   0.67203   0.67258   0.68435
 Alpha virt. eigenvalues --    0.69409   0.69755   0.71036   0.72077   0.73859
 Alpha virt. eigenvalues --    0.74123   0.74248   0.74357   0.75014   0.75962
 Alpha virt. eigenvalues --    0.78079   0.79570   0.81194   0.81994   0.82114
 Alpha virt. eigenvalues --    0.84049   0.86570   0.87530   0.87958   0.90310
 Alpha virt. eigenvalues --    0.91348   0.93441   0.94875   0.97594   0.98323
 Alpha virt. eigenvalues --    0.98776   1.00153   1.02202   1.03502   1.03643
 Alpha virt. eigenvalues --    1.06866   1.08243   1.08458   1.08737   1.12111
 Alpha virt. eigenvalues --    1.13217   1.16715   1.18986   1.19037   1.22919
 Alpha virt. eigenvalues --    1.24123   1.26835   1.28573   1.34666   1.35343
 Alpha virt. eigenvalues --    1.39110   1.45873   1.47646   1.48249   1.49206
 Alpha virt. eigenvalues --    1.50573   1.52555   1.53532   1.55518   1.58022
 Alpha virt. eigenvalues --    1.58246   1.61421   1.64495   1.65706   1.66203
 Alpha virt. eigenvalues --    1.67400   1.67942   1.68183   1.71930   1.73560
 Alpha virt. eigenvalues --    1.73749   1.77082   1.77435   1.80315   1.82277
 Alpha virt. eigenvalues --    1.85607   1.85879   1.86134   1.90790   1.94218
 Alpha virt. eigenvalues --    1.97242   1.98231   2.02651   2.02763   2.03119
 Alpha virt. eigenvalues --    2.03374   2.03708   2.04005   2.04381   2.04935
 Alpha virt. eigenvalues --    2.05585   2.05817   2.06165   2.06411   2.06982
 Alpha virt. eigenvalues --    2.07937   2.08872   2.10934   2.12225   2.14352
 Alpha virt. eigenvalues --    2.17372   2.18689   2.18821   2.20350   2.22197
 Alpha virt. eigenvalues --    2.29066   2.37311   2.41057   2.46466   2.48988
 Alpha virt. eigenvalues --    2.50633   2.52118   2.57734   2.59870   2.62572
 Alpha virt. eigenvalues --    2.64036   2.65630   2.67191   2.71322   2.71979
 Alpha virt. eigenvalues --    2.75299   2.77516   2.78541   2.78746   2.79027
 Alpha virt. eigenvalues --    2.81277   2.86273   2.86312   2.88857   2.90417
 Alpha virt. eigenvalues --    2.90598   2.96525   2.98987   2.99932   3.03593
 Alpha virt. eigenvalues --    3.08331   3.12062   3.24435   3.27328   3.35220
 Alpha virt. eigenvalues --    3.40141   3.42386   3.55425   3.59756   3.61849
 Alpha virt. eigenvalues --    3.64577   3.75341   3.76040   3.86134   3.88211
 Alpha virt. eigenvalues --    3.97497   4.00405   4.03445   4.09210   4.13922
 Alpha virt. eigenvalues --    4.16999   4.19011   4.25645   4.26019   4.28076
 Alpha virt. eigenvalues --    4.28091   4.29022   4.29291   4.29805   4.29835
 Alpha virt. eigenvalues --    4.33048   4.33577   4.34050   4.34982   4.36329
 Alpha virt. eigenvalues --    4.36867   4.37213   4.49104   4.49975   4.52279
 Alpha virt. eigenvalues --    4.94386   4.95733   5.12928   5.23902   5.83601
 Alpha virt. eigenvalues --    6.53144   6.64836   6.82721   6.83330   6.88743
 Alpha virt. eigenvalues --    6.92790   7.62756   7.63164   7.64085   7.65087
 Alpha virt. eigenvalues --    7.65745   7.66187   7.67438   7.67950   7.68189
 Alpha virt. eigenvalues --   23.73871  24.17783  24.26784  24.31614  24.54001
 Alpha virt. eigenvalues --   24.57206  24.72794  48.35336  48.36025  48.41856
 Alpha virt. eigenvalues --   50.07214  66.96553 290.77425 290.77895 290.78987
 Alpha virt. eigenvalues --  290.80040 290.80904 290.81202 290.84556 290.85072
 Alpha virt. eigenvalues --  290.851761020.909931020.919081020.99286
          Condensed to atoms (all electrons):
               1          2          3          4          5          6
     1  C   15.654254  -1.295335  -2.686996  -1.048346  -2.690893  -1.303046
     2  C   -1.295335  18.248371   0.461289  -1.085103  -0.236036 -10.313631
     3  C   -2.686996   0.461289   7.974552   0.921212  -0.741390  -0.235041
     4  C   -1.048346  -1.085103   0.921212   7.170166   0.922971  -1.082297
     5  C   -2.690893  -0.236036  -0.741390   0.922971   7.978102   0.461326
     6  C   -1.303046 -10.313631  -0.235041  -1.082297   0.461326  18.251546
     7  F    0.469570  -0.250449  -0.005050   0.022820  -0.005113  -0.249426
     8  H   -0.579458   0.549278   0.178512   0.089721   0.134878  -0.219260
     9  H    0.078724  -0.054237   0.417020  -0.126119  -0.054965   0.092243
    10  H    0.044188  -0.011711  -0.071898   0.478716  -0.071874  -0.011580
    11  H    0.078964   0.092324  -0.054946  -0.126147   0.416880  -0.054382
    12  H   -0.579523  -0.219323   0.134778   0.089658   0.178582   0.549408
    13  O    0.028026  -0.012943  -0.000997  -0.000748  -0.000991  -0.012919
    14  C   -0.003311   0.001013   0.000734   0.000319   0.000738   0.001030
    15  H    0.002200  -0.000882  -0.000284  -0.000056  -0.000290  -0.000928
    16  H   -0.003086   0.001149   0.000261   0.000041   0.000264   0.001175
    17  H   -0.085694   0.018181   0.007789  -0.008083   0.007610   0.016599
    18  Br   0.273575  -0.071235  -0.039245   0.002078  -0.039067  -0.070082
    19  H   -0.059248   0.257908  -0.031392   0.007401  -0.006210  -0.195314
    20  Br  -0.008641  -0.309277   0.128406   0.021045   0.022318   0.080576
    21  H   -0.059177  -0.195187  -0.006053   0.007396  -0.031679   0.257786
    22  Br  -0.008727   0.080627   0.022241   0.021017   0.128632  -0.309285
               7          8          9         10         11         12
     1  C    0.469570  -0.579458   0.078724   0.044188   0.078964  -0.579523
     2  C   -0.250449   0.549278  -0.054237  -0.011711   0.092324  -0.219323
     3  C   -0.005050   0.178512   0.417020  -0.071898  -0.054946   0.134778
     4  C    0.022820   0.089721  -0.126119   0.478716  -0.126147   0.089658
     5  C   -0.005113   0.134878  -0.054965  -0.071874   0.416880   0.178582
     6  C   -0.249426  -0.219260   0.092243  -0.011580  -0.054382   0.549408
     7  F    9.258212  -0.001607  -0.001640   0.001411  -0.001630  -0.001679
     8  H   -0.001607   0.805889  -0.044942  -0.001874   0.004688  -0.012351
     9  H   -0.001640  -0.044942   0.481536  -0.013507  -0.000354   0.004697
    10  H    0.001411  -0.001874  -0.013507   0.488552  -0.013503  -0.001873
    11  H   -0.001630   0.004688  -0.000354  -0.013503   0.481526  -0.044973
    12  H   -0.001679  -0.012351   0.004697  -0.001873  -0.044973   0.806194
    13  O    0.012494   0.001933   0.000021  -0.000002   0.000022   0.001910
    14  C    0.004713   0.000523  -0.000042   0.000015  -0.000042   0.000517
    15  H   -0.000350  -0.000071   0.000001  -0.000001   0.000001  -0.000070
    16  H   -0.000467  -0.000173   0.000005  -0.000001   0.000005  -0.000172
    17  H   -0.022948   0.008604   0.001043  -0.001029   0.001055   0.008488
    18  Br   0.001813  -0.001462  -0.001559   0.001370  -0.001564  -0.001399
    19  H   -0.041246   0.001234  -0.000158   0.000414  -0.000199   0.002841
    20  Br   0.019293   0.092301  -0.005765  -0.000625   0.000473  -0.004214
    21  H   -0.041212   0.002775  -0.000192   0.000411  -0.000146   0.001209
    22  Br   0.019238  -0.004172   0.000469  -0.000625  -0.005766   0.092319
              13         14         15         16         17         18
     1  C    0.028026  -0.003311   0.002200  -0.003086  -0.085694   0.273575
     2  C   -0.012943   0.001013  -0.000882   0.001149   0.018181  -0.071235
     3  C   -0.000997   0.000734  -0.000284   0.000261   0.007789  -0.039245
     4  C   -0.000748   0.000319  -0.000056   0.000041  -0.008083   0.002078
     5  C   -0.000991   0.000738  -0.000290   0.000264   0.007610  -0.039067
     6  C   -0.012919   0.001030  -0.000928   0.001175   0.016599  -0.070082
     7  F    0.012494   0.004713  -0.000350  -0.000467  -0.022948   0.001813
     8  H    0.001933   0.000523  -0.000071  -0.000173   0.008604  -0.001462
     9  H    0.000021  -0.000042   0.000001   0.000005   0.001043  -0.001559
    10  H   -0.000002   0.000015  -0.000001  -0.000001  -0.001029   0.001370
    11  H    0.000022  -0.000042   0.000001   0.000005   0.001055  -0.001564
    12  H    0.001910   0.000517  -0.000070  -0.000172   0.008488  -0.001399
    13  O    8.214747   0.256699  -0.087604  -0.091749   0.010482  -0.005215
    14  C    0.256699   4.812378   0.415738   0.417759  -0.002051  -0.000029
    15  H   -0.087604   0.415738   0.674877  -0.126331   0.003154  -0.000262
    16  H   -0.091749   0.417759  -0.126331   0.674072  -0.000702   0.000238
    17  H    0.010482  -0.002051   0.003154  -0.000702   0.633410   0.232712
    18  Br  -0.005215  -0.000029  -0.000262   0.000238   0.232712  34.858416
    19  H    0.012801   0.001844  -0.000100   0.000377   0.006490  -0.005104
    20  Br  -0.007803  -0.001315  -0.000069  -0.000116  -0.001089   0.000930
    21  H    0.012865   0.001994  -0.000095   0.000361   0.006472  -0.005104
    22  Br  -0.007879  -0.001365  -0.000075  -0.000107  -0.001108   0.000942
              19         20         21         22
     1  C   -0.059248  -0.008641  -0.059177  -0.008727
     2  C    0.257908  -0.309277  -0.195187   0.080627
     3  C   -0.031392   0.128406  -0.006053   0.022241
     4  C    0.007401   0.021045   0.007396   0.021017
     5  C   -0.006210   0.022318  -0.031679   0.128632
     6  C   -0.195314   0.080576   0.257786  -0.309285
     7  F   -0.041246   0.019293  -0.041212   0.019238
     8  H    0.001234   0.092301   0.002775  -0.004172
     9  H   -0.000158  -0.005765  -0.000192   0.000469
    10  H    0.000414  -0.000625   0.000411  -0.000625
    11  H   -0.000199   0.000473  -0.000146  -0.005766
    12  H    0.002841  -0.004214   0.001209   0.092319
    13  O    0.012801  -0.007803   0.012865  -0.007879
    14  C    0.001844  -0.001315   0.001994  -0.001365
    15  H   -0.000100  -0.000069  -0.000095  -0.000075
    16  H    0.000377  -0.000116   0.000361  -0.000107
    17  H    0.006490  -0.001089   0.006472  -0.001108
    18  Br  -0.005104   0.000930  -0.005104   0.000942
    19  H    0.695815   0.195574  -0.026207   0.013913
    20  Br   0.195574  34.908158   0.013930  -0.006029
    21  H   -0.026207   0.013930   0.696090   0.195338
    22  Br   0.013913  -0.006029   0.195338  34.908339
 Mulliken charges:
               1
     1  C   -0.218020
     2  C    0.345209
     3  C   -0.373502
     4  C   -0.277666
     5  C   -0.373795
     6  C    0.345503
     7  F   -0.186746
     8  H   -0.004968
     9  H    0.227719
    10  H    0.185026
    11  H    0.227717
    12  H   -0.005025
    13  O   -0.323150
    14  C    0.092140
    15  H    0.121498
    16  H    0.127196
    17  H    0.160615
    18  Br  -0.130746
    19  H    0.168566
    20  Br  -0.138060
    21  H    0.168425
    22  Br  -0.137938
 Sum of Mulliken charges =  -0.00000
 Mulliken charges with hydrogens summed into heavy atoms:
               1
     1  C   -0.218020
     2  C    0.340241
     3  C   -0.145783
     4  C   -0.092639
     5  C   -0.146079
     6  C    0.340478
     7  F   -0.186746
    13  O   -0.323150
    14  C    0.340834
    18  Br   0.029869
    20  Br   0.030507
    22  Br   0.030487
 APT charges:
               1
     1  C    0.746829
     2  C   -0.186941
     3  C    0.002711
     4  C   -0.076253
     5  C    0.002674
     6  C   -0.186941
     7  F   -0.782342
     8  H    0.111108
     9  H    0.065905
    10  H    0.059764
    11  H    0.065899
    12  H    0.111111
    13  O   -0.719612
    14  C    0.697309
    15  H    0.004130
    16  H    0.002871
    17  H    0.251405
    18  Br  -0.221852
    19  H    0.246400
    20  Br  -0.220387
    21  H    0.246579
    22  Br  -0.220366
 Sum of APT charges =  -0.00000
 APT charges with hydrogens summed into heavy atoms:
               1
     1  C    0.746829
     2  C   -0.075833
     3  C    0.068615
     4  C   -0.016489
     5  C    0.068572
     6  C   -0.075831
     7  F   -0.782342
    13  O   -0.719612
    14  C    0.704311
    18  Br   0.029553
    20  Br   0.026012
    22  Br   0.026214
 Electronic spatial extent (au):  <R**2>=           7383.7614
 Charge=             -0.0000 electrons
 Dipole moment (field-independent basis, Debye):
    X=              0.0100    Y=             -0.0729    Z=             -0.8926  Tot=              0.8957
 Quadrupole moment (field-independent basis, Debye-Ang):
   XX=           -112.9658   YY=           -121.1183   ZZ=            -78.1029
   XY=              0.0003   XZ=             -0.1195   YZ=             -0.1138
 Traceless Quadrupole moment (field-independent basis, Debye-Ang):
   XX=             -8.9035   YY=            -17.0560   ZZ=             25.9594
   XY=              0.0003   XZ=             -0.1195   YZ=             -0.1138
 Octapole moment (field-independent basis, Debye-Ang**2):
  XXX=             -0.0383  YYY=             -4.9577  ZZZ=           -130.3623  XYY=              0.0438
  XXY=              4.1421  XXZ=              1.9485  XZZ=              0.4946  YZZ=             -0.0769
  YYZ=            -21.6043  XYZ=              0.0084
 Hexadecapole moment (field-independent basis, Debye-Ang**3):
 XXXX=          -2585.0078 YYYY=          -2409.0050 ZZZZ=          -1820.1404 XXXY=              0.0765
 XXXZ=              0.8195 YYYX=             -0.0216 YYYZ=             11.7922 ZZZX=             -1.6716
 ZZZY=             -0.4824 XXYY=           -841.7024 XXZZ=           -847.5861 YYZZ=           -869.2797
 XXYZ=            -13.5111 YYXZ=              0.3526 ZZXY=             -0.0532
 N-N= 1.603303028307D+03 E-N=-2.271807240727D+04  KE= 8.162170631942D+03
  Exact polarizability: 160.748   0.000 130.783  -0.066   1.217 173.271
 Approx polarizability: 161.515  -0.000 130.720  -0.051   0.412 168.517
 D2PCM: PCM CHGder 2nd derivatives, FixD1E=F FixD2E=F DoIter=F DoCFld=F I1PDM=0
 Calling FoFJK, ICntrl=    100127 FMM=F ISym2X=0 I1Cent= 0 IOpClX= 0 NMat=1 NMatS=1 NMatT=0.
 ***** Axes restored to original set *****
 -------------------------------------------------------------------
 Center     Atomic                   Forces (Hartrees/Bohr)
 Number     Number              X              Y              Z
 -------------------------------------------------------------------
      1        6          -0.081089775    0.000154472   -0.046814319
      2        6          -0.053623169    0.001197194    0.014426666
      3        6           0.002698361    0.000113042    0.037371604
      4        6           0.038903130   -0.000329652    0.022460654
      5        6           0.033707955    0.000113088   -0.016357156
      6        6          -0.014329398    0.001196820   -0.053650164
      7        9           0.018695708    0.000056347    0.010804912
      8        1          -0.062278988    0.002075204    0.036519724
      9        1          -0.001832565    0.000079122    0.073752529
     10        1           0.064236543    0.000003943    0.037086253
     11        1           0.062956394    0.000079115   -0.038461182
     12        1           0.000485393    0.002073017   -0.072195783
     13        8           0.016965694   -0.000052109    0.009775863
     14        6           0.060630444   -0.000007581    0.035333866
     15        1          -0.039075269    0.071471050   -0.022724125
     16        1          -0.039069716   -0.071449674   -0.022720926
     17        1          -0.002589306   -0.014381333   -0.001495370
     18       35           0.002282093    0.012477168    0.001315441
     19        1           0.002365589    0.006074828   -0.012598421
     20       35          -0.006419720   -0.008512406    0.010762730
     21        1          -0.009709573    0.006091730    0.008365701
     22       35           0.006090174   -0.008523389   -0.010958494
 -------------------------------------------------------------------
 Cartesian Forces:  Max     0.081089775 RMS     0.032074111
 -----------------------------------------------------------------------------------------------
                       Internal Coordinate Forces (Hartree/Bohr or radian)
  Cent   Atom   N1       Length/X         N2         Alpha/Y        N3         Beta/Z          J
 -----------------------------------------------------------------------------------------------
      1  C 
      2  C        1   0.041276(     1)
      3  C        2   0.157123(     2)      1   0.174649(    22)
      4  C        3   0.221605(     3)      2   0.425855(    23)      1   0.010771(    42)     0
      5  C        4   0.180341(     4)      3   0.450735(    24)      2   0.014445(    43)     0
      6  C        5   0.074589(     5)      4   0.246817(    25)      3   0.007080(    44)     0
      7  F        1  -0.011735(     6)      2   0.000028(    26)      3   0.003253(    45)     0
      8  H        2   0.072195(     7)      3  -0.000921(    27)      4   0.003396(    46)     0
      9  H        3   0.073753(     8)      4   0.003463(    28)      5   0.000129(    47)     0
     10  H        4   0.074174(     9)      5  -0.000001(    29)      6   0.000006(    48)     0
     11  H        5   0.073752(    10)      6  -0.003459(    30)      1   0.000129(    49)     0
     12  H        6   0.072196(    11)      1   0.000917(    31)      2   0.003393(    50)     0
     13  O        7   0.000643(    12)      1  -0.000079(    32)      3   0.000000(    51)     0
     14  C       13   0.020224(    13)      1   0.000105(    33)      2  -0.000000(    52)     0
     15  H       14   0.084497(    14)      1   0.006446(    34)      2   0.000118(    53)     0
     16  H       14   0.084475(    15)      1   0.006455(    35)      2  -0.000118(    54)     0
     17  H        7  -0.001813(    16)      1   0.001830(    36)      2   0.000014(    55)     0
     18  Br      17   0.012745(    17)      7  -0.001131(    37)      1   0.000002(    56)     0
     19  H        7   0.002342(    18)      1   0.025156(    38)      2  -0.010983(    57)     0
     20  Br      19   0.014848(    19)      7   0.007405(    39)      1  -0.001001(    58)     0
     21  H        7   0.002338(    20)      1   0.025243(    40)      2   0.010983(    59)     0
     22  Br      21   0.014852(    21)      7   0.007479(    41)      1   0.001008(    60)     0
 -----------------------------------------------------------------------------------------------
 Internal  Forces:  Max     0.450734770 RMS     0.102787242

 GradGradGradGradGradGradGradGradGradGradGradGradGradGradGradGradGradGrad
 Berny optimization.
 Search for a local minimum.
 Step number   1 out of a maximum of   31
 All quantities printed in internal units (Hartrees-Bohrs-Radians)
 Second derivative matrix not updated -- analytic derivatives used.
 ITU=  0
     Eigenvalues ---    0.00109   0.00358   0.00786   0.00799   0.29648
     Eigenvalues ---    0.29845   0.29873   0.31372   0.57109   0.57321
     Eigenvalues ---    0.57366   0.57418   0.57479   0.57592   0.57781
     Eigenvalues ---    0.58294   0.77020   0.81379   0.96271   1.13036
     Eigenvalues ---    2.19127
 RFO step:  Lambda=-1.39490539D-01 EMin= 1.09448141D-03
 Linear search not attempted -- first point.
 Maximum step size (   0.300) exceeded in Quadratic search.
    -- Step size scaled by   0.768
 Variable       Old X    -DE/DX   Delta X   Delta X   Delta X     New X
                                 (Linear)    (Quad)   (Total)
    d1        2.45664   0.04128   0.00000   0.07773   0.07773   2.53438
    d2        2.45664   0.15712   0.00000   0.08839   0.08839   2.54503
    d3        2.45664   0.22160   0.00000   0.09192   0.09192   2.54856
    d4        2.45664   0.18034   0.00000   0.09675   0.09675   2.55340
    d5        2.45664   0.07459   0.00000   0.09296   0.09296   2.54960
    d6        2.64562  -0.01173   0.00000  -0.02805  -0.02805   2.61756
    d7        1.88973   0.07220   0.00000   0.07640   0.07640   1.96613
    d8        1.88973   0.07375   0.00000   0.07827   0.07827   1.96800
    d9        1.88973   0.07417   0.00000   0.07860   0.07860   1.96833
   d10        1.88973   0.07375   0.00000   0.07832   0.07832   1.96805
   d11        1.88973   0.07220   0.00000   0.07586   0.07586   1.96559
   d12        5.29123   0.00064   0.00000   0.00254   0.00254   5.29378
   d13        2.26767   0.02022   0.00000   0.00896   0.00896   2.27663
   d14        1.88973   0.08450   0.00000   0.09026   0.09026   1.97998
   d15        1.88973   0.08448   0.00000   0.09023   0.09023   1.97995
   d16        4.34637  -0.00181   0.00000  -0.00894  -0.00894   4.33743
   d17        2.64562   0.01275   0.00000   0.02229   0.02229   2.66790
   d18        4.34637   0.00234   0.00000   0.01573   0.01573   4.36210
   d19        2.64562   0.01485   0.00000   0.02629   0.02629   2.67191
   d20        4.34637   0.00234   0.00000   0.01685   0.01685   4.36322
   d21        2.64562   0.01485   0.00000   0.02648   0.02648   2.67210
         Item               Value     Threshold  Converged?
 Maximum Force            0.221605     0.002500     NO 
 RMS     Force            0.086143     0.001667     NO 
 Maximum Displacement     0.096753     0.010000     NO 
 RMS     Displacement     0.065465     0.006667     NO 
 Predicted change in Energy=-7.227123D-02
 GradGradGradGradGradGradGradGradGradGradGradGradGradGradGradGradGradGrad

 ---------------------------------------------------------------------------------------------------
                            Z-MATRIX (ANGSTROMS AND DEGREES)
   CD    Cent   Atom    N1       Length/X        N2       Alpha/Y        N3        Beta/Z          J
 ---------------------------------------------------------------------------------------------------
      1      1  C 
      2      2  C        1   1.341135(     1)
      3      3  C        2   1.346773(     2)      1  120.000(    22)
      4      4  C        3   1.348641(     3)      2  120.000(    23)      1    0.000(    42)      0
      5      5  C        4   1.351199(     4)      3  120.000(    24)      2    0.000(    43)      0
      6      6  C        5   1.349193(     5)      4  120.000(    25)      3    0.000(    44)      0
      7      7  F        1   1.385155(     6)      2  120.000(    26)      3  180.000(    45)      0
      8      8  H        2   1.040429(     7)      3  120.000(    27)      4  180.000(    46)      0
      9      9  H        3   1.041420(     8)      4  120.000(    28)      5  180.000(    47)      0
     10     10  H        4   1.041596(     9)      5  120.000(    29)      6  180.000(    48)      0
     11     11  H        5   1.041446(    10)      6  120.000(    30)      1  180.000(    49)      0
     12     12  H        6   1.040146(    11)      1  120.000(    31)      2  180.000(    50)      0
     13     13  O        7   2.801345(    12)      1  179.900(    32)      3  180.000(    51)      0
     14     14  C       13   1.204740(    13)      1  179.900(    33)      2  180.000(    52)      0
     15     15  H       14   1.047761(    14)      1  120.000(    34)      2   90.000(    53)      0
     16     16  H       14   1.047747(    15)      1  120.000(    35)      2  -90.000(    54)      0
     17     17  H        7   2.295268(    16)      1  100.000(    36)      2   90.000(    55)      0
     18     18  Br      17   1.411794(    17)      7  160.000(    37)      1    0.000(    56)      0
     19     19  H        7   2.308323(    18)      1  100.000(    38)      2  -30.000(    57)      0
     20     20  Br      19   1.413912(    19)      7  160.000(    39)      1    0.000(    58)      0
     21     21  H        7   2.308918(    20)      1  100.000(    40)      2 -150.000(    59)      0
     22     22  Br      21   1.414014(    21)      7  160.000(    41)      1    0.000(    60)      0
 ---------------------------------------------------------------------------------------------------
                         Z-Matrix orientation:                         
 ---------------------------------------------------------------------
 Center     Atomic      Atomic             Coordinates (Angstroms)
 Number     Number       Type             X           Y           Z
 ---------------------------------------------------------------------
      1          6           0        0.000000    0.000000    0.000000
      2          6           0        0.000000    0.000000    1.341135
      3          6           0        1.166340    0.000000    2.014522
      4          6           0        2.334297    0.000000    1.340201
      5          6           0        2.334297    0.000000   -0.010998
      6          6           0        1.165862    0.000000   -0.685594
      7          9           0       -1.199580   -0.000000   -0.692578
      8          1           0       -0.901038   -0.000000    1.861350
      9          1           0        1.166340   -0.000000    3.055941
     10          1           0        3.236345   -0.000000    1.860999
     11          1           0        3.236216   -0.000000   -0.531721
     12          1           0        1.157548   -0.000000   -1.725707
     13          8           0       -3.623168   -0.000000   -2.097482
     14          6           0       -4.664744   -0.000000   -2.702889
     15          1           0       -5.118029    0.907388   -2.965536
     16          1           0       -5.118023   -0.907376   -2.965533
     17          1           0       -1.544751    2.260397   -0.891862
     18         35           0       -1.332440    3.650743   -0.769285
     19          1           0       -2.531062   -1.136627    0.811945
     20         35           0       -2.921373   -1.832843    1.979030
     21          1           0       -0.562202   -1.136920   -2.598427
     22         35           0        0.253427   -1.833186   -3.520056
 ---------------------------------------------------------------------
                    Distance matrix (angstroms):
                    1          2          3          4          5
     1  C    0.000000
     2  C    1.341135   0.000000
     3  C    2.327799   1.346773   0.000000
     4  C    2.691669   2.334297   1.348641   0.000000
     5  C    2.334323   2.697630   2.338130   1.351199   0.000000
     6  C    1.352506   2.338133   2.700116   2.338608   1.349193
     7  F    1.385155   2.361139   3.595270   4.076822   3.599005
     8  H    2.067968   1.040429   2.073044   3.277040   3.738058
     9  H    3.270952   2.073863   1.041420   2.075545   3.281804
    10  H    3.733262   3.277833   2.075691   1.041596   2.077995
    11  H    3.279607   3.739075   3.281423   2.077872   1.041446
    12  H    2.077975   3.278023   3.740239   3.283981   2.079655
    13  O    4.186499   4.995141   6.312524   6.878158   6.312274
    14  C    5.391238   6.173651   7.500367   8.082893   7.498857
    15  H    5.984312   6.750185   8.069549   8.654473   8.067826
    16  H    5.984303   6.750176   8.069541   8.654464   8.067818
    17  H    2.879422   3.532977   4.572360   5.013832   4.575186
    18  Br   3.961707   4.422351   5.226988   5.587738   5.229520
    19  H    2.890925   2.824577   4.050789   5.024211   5.063682
    20  Br   3.976216   3.507227   4.479952   5.602632   5.911141
    21  H    2.891450   4.138697   5.055664   5.019471   4.046861
    22  Br   3.976882   5.201536   5.901316   5.595775   4.472592
                    6          7          8          9         10
     6  C    0.000000
     7  F    2.365452   0.000000
     8  H    3.280091   2.571317   0.000000
     9  H    3.741536   4.432716   2.387698   0.000000
    10  H    3.282079   5.118416   4.137383   2.390148   0.000000
    11  H    2.076064   4.438711   4.779504   4.141945   2.392720
    12  H    1.040146   2.573598   4.135789   4.781656   4.145583
    13  O    4.992818   2.801345   4.804408   7.035422   7.919753
    14  C    6.169720   4.006085   5.915891   8.195467   9.124489
    15  H    6.746020   4.619950   6.473422   8.750705   9.690943
    16  H    6.746011   4.619941   6.473414   8.750697   9.690935
    17  H    3.535444   2.295268   3.619936   5.295712   5.962090
    18  Br   4.424527   3.653965   4.520428   5.848434   6.412497
    19  H    4.147504   2.308323   2.247254   4.471937   5.971216
    20  Br   5.212008   3.668974   2.730369   4.607434   6.425787
    21  H    2.817396   2.308918   4.614868   6.020991   5.967247
    22  Br   3.496753   3.669664   5.801111   6.887505   6.419823
                   11         12         13         14         15
    11  H    0.000000
    12  H    2.397178   0.000000
    13  O    7.035819   4.795149   0.000000
    14  C    8.193848   5.903725   1.204740   0.000000
    15  H    8.748727   6.460913   1.952302   1.047761   0.000000
    16  H    8.748719   6.460905   1.952290   1.047747   1.814763
    17  H    5.300636   3.620374   3.298899   4.257179   4.347307
    18  Br   5.852946   4.521361   4.509930   5.307636   5.165289
    19  H    6.029830   4.619246   3.308985   4.265979   5.013957
    20  Br   6.897759   5.807063   4.524354   5.321562   6.064891
    21  H    4.471223   2.238698   3.303490   4.258445   5.006948
    22  Br   4.603015   2.719871   4.517995   5.311943   6.055641
                   16         17         18         19         20
    16  H    0.000000
    17  H    5.206071   0.000000
    18  Br   6.319066   1.411794   0.000000
    19  H    4.584132   3.926263   5.182267   0.000000
    20  Br   5.489122   5.185723   6.336218   1.413912   0.000000
    21  H    4.576349   3.926771   5.182736   3.937899   5.196452
    22  Br   5.478786   5.186355   6.336813   5.196615   6.349748
                   21         22
    21  H    0.000000
    22  Br   1.414014   0.000000
 Stoichiometry    C7H10Br3FO
 Framework group  C1[X(C7H10Br3FO)]
 Deg. of freedom    60
 Full point group                 C1      NOp   1
 Largest Abelian subgroup         C1      NOp   1
 Largest concise Abelian subgroup C1      NOp   1
                         Standard orientation:                         
 ---------------------------------------------------------------------
 Center     Atomic      Atomic             Coordinates (Angstroms)
 Number     Number       Type             X           Y           Z
 ---------------------------------------------------------------------
      1          6           0       -0.001063    0.006636    1.147713
      2          6           0       -1.161849    0.006993    1.819441
      3          6           0       -1.160506    0.011086    3.166207
      4          6           0        0.008122    0.014826    3.839354
      5          6           0        1.177619    0.014467    3.162585
      6          6           0        1.176274    0.010366    1.813400
      7          9           0       -0.002445    0.002425   -0.237435
      8          1           0       -2.063405    0.004107    1.300132
      9          1           0       -2.061881    0.011364    3.687818
     10          1           0        0.009161    0.017992    4.880944
     11          1           0        2.080056    0.017355    3.682402
     12          1           0        2.072353    0.010061    1.285248
     13          8           0       -0.000350   -0.006082   -3.038767
     14          6           0        0.001958   -0.009739   -4.243499
     15          1           0        0.000935    0.896053   -4.770134
     16          1           0        0.003567   -0.918701   -4.764614
     17          1           0       -0.006121    2.261598   -0.642869
     18         35           0       -0.007893    3.652681   -0.401939
     19          1           0       -1.969889   -1.138263   -0.632843
     20         35           0       -3.174513   -1.835474   -0.383998
     21          1           0        1.968004   -1.132857   -0.636891
     22         35           0        3.175226   -1.826627   -0.390445
 ---------------------------------------------------------------------
 Rotational constants (GHZ):           0.1939085           0.1874290           0.1543990
 Standard basis: 6-311++G(d,p) (5D, 7F)
 There are   430 symmetry adapted cartesian basis functions of A   symmetry.
 There are   412 symmetry adapted basis functions of A   symmetry.
   412 basis functions,   696 primitive gaussians,   430 cartesian basis functions
    87 alpha electrons       87 beta electrons
       nuclear repulsion energy      1587.7517693781 Hartrees.
 NAtoms=   22 NActive=   22 NUniq=   22 SFac= 1.00D+00 NAtFMM=   60 NAOKFM=F Big=F
 Integral buffers will be    131072 words long.
 Raffenetti 2 integral format.
 Two-electron integral symmetry is turned on.
 Force inversion solution in PCM.
 ------------------------------------------------------------------------------
 Polarizable Continuum Model (PCM)
 =================================
 Model                : PCM.
 Atomic radii         : UFF (Universal Force Field).
 Polarization charges : Total charges.
 Charge compensation  : None.
 Solution method      : Matrix inversion.
 Cavity type          : Scaled VdW (van der Waals Surface) (Alpha=1.100).
 Cavity algorithm     : GePol (No added spheres)
                        Default sphere list used, NSphG=   22.
                        Lebedev-Laikov grids with approx.  5.0 points / Ang**2.
                        Smoothing algorithm: York/Karplus (Gamma=1.0000).
                        Polarization charges: spherical gaussians, with
                                              point-specific exponents (IZeta= 3).
                        Self-potential: point-specific (ISelfS= 7).
                        Self-field    : sphere-specific E.n sum rule (ISelfD= 2).
 1st derivatives      : Analytical E(r).r(x)/FMM algorithm (CHGder, D1EAlg=3).
                        Cavity 1st derivative terms included.
 Solvent              : DiChloroEthane, Eps=  10.125000 Eps(inf)=   2.087447
 ------------------------------------------------------------------------------
 One-electron integrals computed using PRISM.
 NBasis=   412 RedAO= T EigKep=  4.27D-06  NBF=   412
 NBsUse=   411 1.00D-06 EigRej=  5.26D-07 NBFU=   411
 Initial guess from the checkpoint file:  "/home/lywu/software/g16/scr/Gau-5928.chk"
 B after Tr=     0.000000    0.000000   -0.000000
         Rot=    0.999997    0.001505   -0.001805   -0.000723 Ang=   0.28 deg.
 ExpMin= 3.50D-02 ExpMax= 4.40D+05 ExpMxC= 1.51D+04 IAcc=3 IRadAn=         5 AccDes= 0.00D+00
 Harris functional with IExCor= 1009 and IRadAn=       5 diagonalized for initial guess.
 HarFok:  IExCor= 1009 AccDes= 0.00D+00 IRadAn=         5 IDoV= 1 UseB2=F ITyADJ=14
 ICtDFT=  3500011 ScaDFX=  1.000000  1.000000  1.000000  1.000000
 FoFCou: FMM=F IPFlag=           0 FMFlag=      100000 FMFlg1=           0
         NFxFlg=           0 DoJE=T BraDBF=F KetDBF=T FulRan=T
         wScrn=  0.000000 ICntrl=       500 IOpCl=  0 I1Cent=   200000004 NGrid=           0
         NMat0=    1 NMatS0=      1 NMatT0=    0 NMatD0=    1 NMtDS0=    0 NMtDT0=    0
 Petite list used in FoFCou.
 Requested convergence on RMS density matrix=1.00D-08 within 128 cycles.
 Requested convergence on MAX density matrix=1.00D-06.
 Requested convergence on             energy=1.00D-06.
 No special actions if energy rises.
 Inv3:  Mode=1 IEnd=    20766483.
 Iteration    1 A*A^-1 deviation from unit magnitude is 5.88D-15 for   2610.
 Iteration    1 A*A^-1 deviation from orthogonality  is 3.88D-15 for   2627   2473.
 Iteration    1 A^-1*A deviation from unit magnitude is 4.77D-15 for   2610.
 Iteration    1 A^-1*A deviation from orthogonality  is 3.32D-15 for   2627   2473.
 Error on total polarization charges =  0.02078
 SCF Done:  E(RM062X) =  -8170.22678624     A.U. after   14 cycles
            NFock= 14  Conv=0.76D-09     -V/T= 2.0012
 DoSCS=F DFT=T ScalE2(SS,OS)=  1.000000  1.000000
 Range of M.O.s used for correlation:     1   411
 NBasis=   412 NAE=    87 NBE=    87 NFC=     0 NFV=     0
 NROrb=    411 NOA=    87 NOB=    87 NVA=   324 NVB=   324

 **** Warning!!: The largest alpha MO coefficient is  0.14658248D+03

 Symmetrizing basis deriv contribution to polar:
 IMax=3 JMax=2 DiffMx= 0.00D+00
 D1PCM: PCM CHGder 1st derivatives, ID1Alg=3 FixD1E=F DoIter=F DoCFld=F I1PDM=0.
 Calling FoFJK, ICntrl=      2127 FMM=F ISym2X=0 I1Cent= 0 IOpClX= 0 NMat=1 NMatS=1 NMatT=0.
 ***** Axes restored to original set *****
 -------------------------------------------------------------------
 Center     Atomic                   Forces (Hartrees/Bohr)
 Number     Number              X              Y              Z
 -------------------------------------------------------------------
      1        6          -0.022815077    0.000088100   -0.024671651
      2        6          -0.027518462    0.001364661    0.008291165
      3        6           0.005607893    0.000102609    0.011274041
      4        6           0.014304784   -0.000333699    0.006821395
      5        6           0.009099543    0.000105212   -0.002193907
      6        6          -0.011861792    0.001435286   -0.018956835
      7        9           0.014426807    0.000044941    0.008767242
      8        1          -0.027308331    0.002226842    0.016448577
      9        1          -0.001556585    0.000084437    0.032687592
     10        1           0.028534113    0.000000617    0.016364006
     11        1           0.027540066    0.000089653   -0.017686049
     12        1           0.000740551    0.002322230   -0.031757220
     13        8           0.004803452   -0.000040121    0.002719974
     14        6           0.034160325    0.000002104    0.020005718
     15        1          -0.019700643    0.031298731   -0.011492081
     16        1          -0.019698604   -0.031285049   -0.011492143
     17        1          -0.001638409   -0.007832230   -0.000938267
     18       35           0.001306229    0.006078769    0.000746428
     19        1           0.000140578    0.002184933   -0.006300960
     20       35          -0.004595949   -0.004983935    0.004425282
     21        1          -0.005393951    0.002130604    0.003194491
     22       35           0.001423462   -0.005084697   -0.006256796
 -------------------------------------------------------------------
 Cartesian Forces:  Max     0.034160325 RMS     0.014261018
 -----------------------------------------------------------------------------------------------
                       Internal Coordinate Forces (Hartree/Bohr or radian)
  Cent   Atom   N1       Length/X         N2         Alpha/Y        N3         Beta/Z          J
 -----------------------------------------------------------------------------------------------
      1  C 
      2  C        1   0.021952(     1)
      3  C        2   0.061649(     2)      1   0.047298(    22)
      4  C        3   0.082910(     3)      2   0.147238(    23)      1   0.013023(    42)     0
      5  C        4   0.069935(     4)      3   0.159756(    24)      2   0.017121(    43)     0
      6  C        5   0.034323(     5)      4   0.093795(    25)      3   0.008409(    44)     0
      7  F        1  -0.006222(     6)      2  -0.001677(    26)      3   0.004339(    45)     0
      8  H        2   0.031874(     7)      3  -0.001161(    27)      4   0.003792(    46)     0
      9  H        3   0.032688(     8)      4   0.003063(    28)      5   0.000144(    47)     0
     10  H        4   0.032893(     9)      5  -0.000188(    29)      6   0.000001(    48)     0
     11  H        5   0.032693(    10)      6  -0.003044(    30)      1   0.000153(    49)     0
     12  H        6   0.031750(    11)      1   0.001955(    31)      2   0.003953(    50)     0
     13  O        7   0.000506(    12)      1  -0.000029(    32)      3   0.000000(    51)     0
     14  C       13   0.006026(    13)      1   0.000101(    33)      2  -0.000000(    52)     0
     15  H       14   0.038509(    14)      1   0.008123(    34)      2   0.000114(    53)     0
     16  H       14   0.038496(    15)      1   0.008133(    35)      2  -0.000116(    54)     0
     17  H        7  -0.001660(    16)      1   0.001823(    36)      2   0.000018(    55)     0
     18  Br      17   0.006248(    17)      7  -0.001137(    37)      1   0.000006(    56)     0
     19  H        7   0.002726(    18)      1   0.027419(    38)      2  -0.012409(    57)     0
     20  Br      19   0.007376(    19)      7   0.008270(    39)      1  -0.001143(    58)     0
     21  H        7   0.002886(    20)      1   0.028429(    40)      2   0.013082(    59)     0
     22  Br      21   0.007403(    21)      7   0.008631(    41)      1   0.001223(    60)     0
 -----------------------------------------------------------------------------------------------
 Internal  Forces:  Max     0.159755900 RMS     0.038010534

 GradGradGradGradGradGradGradGradGradGradGradGradGradGradGradGradGradGrad
 Berny optimization.
 Search for a local minimum.
 Step number   2 out of a maximum of   31
 All quantities printed in internal units (Hartrees-Bohrs-Radians)
 Update second derivatives using D2CorN and points    1    2
 DE= -7.49D-02 DEPred=-7.23D-02 R= 1.04D+00
 TightC=F SS=  1.41D+00  RLast= 3.00D-01 DXNew= 5.0454D-01 9.0000D-01
 Trust test= 1.04D+00 RLast= 3.00D-01 DXMaxT set to 5.05D-01
 ITU=  1  0
     Eigenvalues ---    0.00109   0.00358   0.00783   0.00799   0.29645
     Eigenvalues ---    0.29808   0.29873   0.31363   0.53707   0.57308
     Eigenvalues ---    0.57321   0.57370   0.57418   0.57539   0.57718
     Eigenvalues ---    0.58268   0.76908   0.78737   0.96248   1.12900
     Eigenvalues ---    2.17254
 RFO step:  Lambda=-6.88702254D-03 EMin= 1.09400834D-03
 Quartic linear search produced a step of  0.92593.
 Maximum step size (   0.505) exceeded in Quadratic search.
    -- Step size scaled by   0.781
 Variable       Old X    -DE/DX   Delta X   Delta X   Delta X     New X
                                 (Linear)    (Quad)   (Total)
    d1        2.53438   0.02195   0.07198   0.00702   0.07899   2.61337
    d2        2.54503   0.06165   0.08184  -0.00614   0.07570   2.62073
    d3        2.54856   0.08291   0.08511  -0.00861   0.07650   2.62506
    d4        2.55340   0.06993   0.08959  -0.00729   0.08229   2.63569
    d5        2.54960   0.03432   0.08607   0.00409   0.09017   2.63977
    d6        2.61756  -0.00622  -0.02597  -0.02619  -0.05217   2.56540
    d7        1.96613   0.03187   0.07074   0.00960   0.08034   2.04646
    d8        1.96800   0.03269   0.07247   0.00823   0.08070   2.04870
    d9        1.96833   0.03289   0.07278   0.00826   0.08104   2.04937
   d10        1.96805   0.03269   0.07252   0.00811   0.08063   2.04868
   d11        1.96559   0.03175   0.07024   0.00952   0.07977   2.04536
   d12        5.29378   0.00051   0.00235   0.06340   0.06576   5.35953
   d13        2.27663   0.00603   0.00829  -0.00565   0.00265   2.27928
   d14        1.97998   0.03851   0.08357   0.01256   0.09613   2.07611
   d15        1.97995   0.03850   0.08355   0.01256   0.09610   2.07606
   d16        4.33743  -0.00166  -0.00828  -0.26423  -0.27251   4.06491
   d17        2.66790   0.00625   0.02064   0.01002   0.03066   2.69856
   d18        4.36210   0.00273   0.01456   0.28748   0.30204   4.66414
   d19        2.67191   0.00738   0.02434   0.00561   0.02996   2.70186
   d20        4.36322   0.00289   0.01560   0.31027   0.32588   4.68910
   d21        2.67210   0.00740   0.02452   0.00531   0.02984   2.70194
         Item               Value     Threshold  Converged?
 Maximum Force            0.082910     0.002500     NO 
 RMS     Force            0.034967     0.001667     NO 
 Maximum Displacement     0.325875     0.010000     NO 
 RMS     Displacement     0.131848     0.006667     NO 
 Predicted change in Energy=-1.754415D-02
 GradGradGradGradGradGradGradGradGradGradGradGradGradGradGradGradGradGrad

 ---------------------------------------------------------------------------------------------------
                            Z-MATRIX (ANGSTROMS AND DEGREES)
   CD    Cent   Atom    N1       Length/X        N2       Alpha/Y        N3        Beta/Z          J
 ---------------------------------------------------------------------------------------------------
      1      1  C 
      2      2  C        1   1.382937(     1)
      3      3  C        2   1.386832(     2)      1  120.000(    22)
      4      4  C        3   1.389120(     3)      2  120.000(    23)      1    0.000(    42)      0
      5      5  C        4   1.394747(     4)      3  120.000(    24)      2    0.000(    43)      0
      6      6  C        5   1.396908(     5)      4  120.000(    25)      3    0.000(    44)      0
      7      7  F        1   1.357551(     6)      2  120.000(    26)      3  180.000(    45)      0
      8      8  H        2   1.082942(     7)      3  120.000(    27)      4  180.000(    46)      0
      9      9  H        3   1.084124(     8)      4  120.000(    28)      5  180.000(    47)      0
     10     10  H        4   1.084481(     9)      5  120.000(    29)      6  180.000(    48)      0
     11     11  H        5   1.084113(    10)      6  120.000(    30)      1  180.000(    49)      0
     12     12  H        6   1.082356(    11)      1  120.000(    31)      2  180.000(    50)      0
     13     13  O        7   2.836142(    12)      1  179.900(    32)      3  180.000(    51)      0
     14     14  C       13   1.206140(    13)      1  179.900(    33)      2  180.000(    52)      0
     15     15  H       14   1.098632(    14)      1  120.000(    34)      2   90.000(    53)      0
     16     16  H       14   1.098602(    15)      1  120.000(    35)      2  -90.000(    54)      0
     17     17  H        7   2.151060(    16)      1  100.000(    36)      2   90.000(    55)      0
     18     18  Br      17   1.428016(    17)      7  160.000(    37)      1    0.000(    56)      0
     19     19  H        7   2.468155(    18)      1  100.000(    38)      2  -30.000(    57)      0
     20     20  Br      19   1.429764(    19)      7  160.000(    39)      1    0.000(    58)      0
     21     21  H        7   2.481363(    20)      1  100.000(    40)      2 -150.000(    59)      0
     22     22  Br      21   1.429803(    21)      7  160.000(    41)      1    0.000(    60)      0
 ---------------------------------------------------------------------------------------------------
                         Z-Matrix orientation:                         
 ---------------------------------------------------------------------
 Center     Atomic      Atomic             Coordinates (Angstroms)
 Number     Number       Type             X           Y           Z
 ---------------------------------------------------------------------
      1          6           0        0.000000    0.000000    0.000000
      2          6           0        0.000000    0.000000    1.382937
      3          6           0        1.201032    0.000000    2.076353
      4          6           0        2.404045    0.000000    1.381793
      5          6           0        2.404045    0.000000   -0.012954
      6          6           0        1.194287    0.000000   -0.711408
      7          9           0       -1.175673   -0.000000   -0.678775
      8          1           0       -0.937856   -0.000000    1.924408
      9          1           0        1.201032   -0.000000    3.160477
     10          1           0        3.343233   -0.000000    1.924033
     11          1           0        3.342915   -0.000000   -0.555010
     12          1           0        1.179530   -0.000000   -1.793664
     13          8           0       -3.629365   -0.000000   -2.101131
     14          6           0       -4.672145   -0.000000   -2.707254
     15          1           0       -5.147434    0.951443   -2.982659
     16          1           0       -5.147422   -0.951418   -2.982652
     17          1           0       -1.499158    2.118381   -0.865539
     18         35           0       -1.284408    3.524702   -0.741553
     19          1           0       -2.599349   -1.215329    0.929923
     20         35           0       -2.994037   -1.919350    2.110093
     21          1           0       -0.490692   -1.221833   -2.726967
     22         35           0        0.334044   -1.925873   -3.658886
 ---------------------------------------------------------------------
                    Distance matrix (angstroms):
                    1          2          3          4          5
     1  C    0.000000
     2  C    1.382937   0.000000
     3  C    2.398691   1.386832   0.000000
     4  C    2.772866   2.404046   1.389120   0.000000
[...]
     5  C   -1.341115   0.080447  -0.395467   0.646081   6.514549   0.387643
     6  C   -0.635274  -5.434997  -0.087064  -0.579496   0.387643  12.154921
     7  F    0.478052  -0.216333  -0.020053   0.013793  -0.016375  -0.210224
     8  H   -0.337210   0.459259   0.113820   0.060322   0.048838  -0.114017
     9  H    0.038438  -0.011510   0.370552  -0.097098  -0.016728   0.042965
    10  H    0.028457  -0.006536  -0.060024   0.435818  -0.058780  -0.004055
    11  H    0.037943   0.045815  -0.016636  -0.098513   0.375221  -0.017953
    12  H   -0.321323  -0.124189   0.044921   0.062347   0.091539   0.472846
    13  O    0.010777  -0.004383  -0.000274  -0.000073  -0.000254  -0.004519
    14  C   -0.001323   0.000533   0.000148   0.000088   0.000168   0.000923
    15  H    0.000400  -0.000129  -0.000030  -0.000018  -0.000032  -0.000180
    16  H   -0.000817   0.000245   0.000045   0.000006   0.000043   0.000263
    17  H   -0.070723   0.017436   0.005368  -0.005828   0.003294   0.013764
    18  Br   0.212285  -0.060120  -0.026046   0.009865  -0.022568  -0.056531
    19  H   -0.086060   0.139768   0.009747   0.007886  -0.000857  -0.097150
    20  Br   0.018772  -0.168840   0.063974   0.004683   0.007434   0.047557
    21  H   -0.080758  -0.097021  -0.002483   0.008652   0.005079   0.138745
    22  Br   0.019603   0.047909   0.008404   0.003693   0.059851  -0.166765
               7          8          9         10         11         12
     1  C    0.478052  -0.337210   0.038438   0.028457   0.037943  -0.321323
     2  C   -0.216333   0.459259  -0.011510  -0.006536   0.045815  -0.124189
     3  C   -0.020053   0.113820   0.370552  -0.060024  -0.016636   0.044921
     4  C    0.013793   0.060322  -0.097098   0.435818  -0.098513   0.062347
     5  C   -0.016375   0.048838  -0.016728  -0.058780   0.375221   0.091539
     6  C   -0.210224  -0.114017   0.042965  -0.004055  -0.017953   0.472846
     7  F    9.144716  -0.000340  -0.001090   0.000844  -0.001092  -0.000995
     8  H   -0.000340   0.654800  -0.020248   0.000642   0.001343  -0.003697
     9  H   -0.001090  -0.020248   0.453416  -0.008405   0.001159   0.001285
    10  H    0.000844   0.000642  -0.008405   0.463312  -0.008259   0.000678
    11  H   -0.001092   0.001343   0.001159  -0.008259   0.453057  -0.020199
    12  H   -0.000995  -0.003697   0.001285   0.000678  -0.020199   0.660987
    13  O    0.004173   0.000691  -0.000000  -0.000001  -0.000000   0.000714
    14  C    0.001216   0.000274  -0.000014   0.000003  -0.000014   0.000284
    15  H   -0.000075  -0.000017   0.000002  -0.000000   0.000002  -0.000016
    16  H   -0.000103  -0.000037   0.000000  -0.000000   0.000000  -0.000039
    17  H   -0.018101   0.002856   0.001191  -0.000573   0.001230   0.002763
    18  Br  -0.003498   0.000094  -0.001774   0.000963  -0.001787  -0.000023
    19  H   -0.022978   0.004679  -0.000383   0.000097  -0.000198   0.000681
    20  Br   0.009237   0.057626  -0.002582  -0.000230   0.000211  -0.001509
    21  H   -0.022318   0.000769  -0.000212   0.000110  -0.000449   0.005489
    22  Br   0.009001  -0.001544   0.000223  -0.000234  -0.002558   0.058598
              13         14         15         16         17         18
     1  C    0.010777  -0.001323   0.000400  -0.000817  -0.070723   0.212285
     2  C   -0.004383   0.000533  -0.000129   0.000245   0.017436  -0.060120
     3  C   -0.000274   0.000148  -0.000030   0.000045   0.005368  -0.026046
     4  C   -0.000073   0.000088  -0.000018   0.000006  -0.005828   0.009865
     5  C   -0.000254   0.000168  -0.000032   0.000043   0.003294  -0.022568
     6  C   -0.004519   0.000923  -0.000180   0.000263   0.013764  -0.056531
     7  F    0.004173   0.001216  -0.000075  -0.000103  -0.018101  -0.003498
     8  H    0.000691   0.000274  -0.000017  -0.000037   0.002856   0.000094
     9  H   -0.000000  -0.000014   0.000002   0.000000   0.001191  -0.001774
    10  H   -0.000001   0.000003  -0.000000  -0.000000  -0.000573   0.000963
    11  H   -0.000000  -0.000014   0.000002   0.000000   0.001230  -0.001787
    12  H    0.000714   0.000284  -0.000016  -0.000039   0.002763  -0.000023
    13  O    8.142311   0.294381  -0.081540  -0.084593   0.010643  -0.005414
    14  C    0.294381   4.879947   0.396319   0.397762  -0.002171   0.000153
    15  H   -0.081540   0.396319   0.655463  -0.103928   0.000938  -0.000087
    16  H   -0.084593   0.397762  -0.103928   0.656299   0.000033   0.000022
    17  H    0.010643  -0.002171   0.000938   0.000033   0.639376   0.227108
    18  Br  -0.005414   0.000153  -0.000087   0.000022   0.227108  34.865875
    19  H    0.005163   0.000495   0.000045   0.000074   0.004369  -0.003930
    20  Br  -0.002811  -0.000456  -0.000054  -0.000057  -0.002263   0.001663
    21  H    0.005199   0.000519   0.000044   0.000069   0.004395  -0.003938
    22  Br  -0.002824  -0.000460  -0.000053  -0.000057  -0.002314   0.001694
              19         20         21         22
     1  C   -0.086060   0.018772  -0.080758   0.019603
     2  C    0.139768  -0.168840  -0.097021   0.047909
     3  C    0.009747   0.063974  -0.002483   0.008404
     4  C    0.007886   0.004683   0.008652   0.003693
     5  C   -0.000857   0.007434   0.005079   0.059851
     6  C   -0.097150   0.047557   0.138745  -0.166765
     7  F   -0.022978   0.009237  -0.022318   0.009001
     8  H    0.004679   0.057626   0.000769  -0.001544
     9  H   -0.000383  -0.002582  -0.000212   0.000223
    10  H    0.000097  -0.000230   0.000110  -0.000234
    11  H   -0.000198   0.000211  -0.000449  -0.002558
    12  H    0.000681  -0.001509   0.005489   0.058598
    13  O    0.005163  -0.002811   0.005199  -0.002824
    14  C    0.000495  -0.000456   0.000519  -0.000460
    15  H    0.000045  -0.000054   0.000044  -0.000053
    16  H    0.000074  -0.000057   0.000069  -0.000057
    17  H    0.004369  -0.002263   0.004395  -0.002314
    18  Br  -0.003930   0.001663  -0.003938   0.001694
    19  H    0.633045   0.235924  -0.006258   0.003314
    20  Br   0.235924  34.868012   0.003310  -0.001407
    21  H   -0.006258   0.003310   0.632867   0.236335
    22  Br   0.003314  -0.001407   0.236335  34.867263
 Mulliken charges:
               1
     1  C   -0.121817
     2  C    0.161250
     3  C   -0.369893
     4  C   -0.294582
     5  C   -0.368011
     6  C    0.148596
     7  F   -0.127458
     8  H    0.071096
     9  H    0.250813
    10  H    0.216173
    11  H    0.251677
    12  H    0.068858
    13  O   -0.287367
    14  C    0.031227
    15  H    0.132948
    16  H    0.134770
    17  H    0.167209
    18  Br  -0.134008
    19  H    0.172530
    20  Br  -0.138191
    21  H    0.171853
    22  Br  -0.137673
 Sum of Mulliken charges =  -0.00000
 Mulliken charges with hydrogens summed into heavy atoms:
               1
     1  C   -0.121817
     2  C    0.232346
     3  C   -0.119080
     4  C   -0.078409
     5  C   -0.116335
     6  C    0.217454
     7  F   -0.127458
    13  O   -0.287367
    14  C    0.298945
    18  Br   0.033201
    20  Br   0.034339
    22  Br   0.034180
 APT charges:
               1
     1  C    0.732911
     2  C   -0.167086
     3  C    0.008604
     4  C   -0.100756
     5  C    0.006773
     6  C   -0.166692
     7  F   -0.775897
     8  H    0.096979
     9  H    0.073072
    10  H    0.066270
    11  H    0.073333
    12  H    0.100067
    13  O   -0.748989
    14  C    0.780347
    15  H   -0.015693
    16  H   -0.017049
    17  H    0.270435
    18  Br  -0.229265
    19  H    0.214310
    20  Br  -0.207829
    21  H    0.213857
    22  Br  -0.207703
 Sum of APT charges =  -0.00000
 APT charges with hydrogens summed into heavy atoms:
               1
     1  C    0.732911
     2  C   -0.070107
     3  C    0.081676
     4  C   -0.034485
     5  C    0.080106
     6  C   -0.066625
     7  F   -0.775897
    13  O   -0.748989
    14  C    0.747604
    18  Br   0.041170
    20  Br   0.006481
    22  Br   0.006154
 Electronic spatial extent (au):  <R**2>=           8766.4233
 Charge=              0.0000 electrons
 Dipole moment (field-independent basis, Debye):
    X=              0.0043    Y=             -0.5607    Z=             -1.0925  Tot=              1.2280
 Quadrupole moment (field-independent basis, Debye-Ang):
   XX=           -114.5337   YY=           -120.5360   ZZ=            -78.0724
   XY=              0.0439   XZ=             -0.2660   YZ=             11.7485
 Traceless Quadrupole moment (field-independent basis, Debye-Ang):
   XX=            -10.1530   YY=            -16.1553   ZZ=             26.3083
   XY=              0.0439   XZ=             -0.2660   YZ=             11.7485
 Octapole moment (field-independent basis, Debye-Ang**2):
  XXX=             -0.4044  YYY=            -34.8803  ZZZ=           -156.2769  XYY=              0.4328
  XXY=              7.3462  XXZ=              2.6782  XZZ=              0.1295  YZZ=            -24.4838
  YYZ=            -27.7941  XYZ=              0.2972
 Hexadecapole moment (field-independent basis, Debye-Ang**3):
 XXXX=          -3409.7664 YYYY=          -2642.5416 ZZZZ=          -2034.5537 XXXY=              0.5269
 XXXZ=              1.0414 YYYX=             -0.4963 YYYZ=           -124.6886 ZZZX=             -3.4687
 ZZZY=            165.8135 XXYY=          -1022.7947 XXZZ=          -1045.6795 YYZZ=           -914.0494
 XXYZ=            -41.4496 YYXZ=              0.1812 ZZXY=             -0.3123
 N-N= 1.484559463856D+03 E-N=-2.247835762444D+04  KE= 8.159525446431D+03
  Exact polarizability: 176.080   0.262 141.080  -0.336  11.164 183.163
 Approx polarizability: 177.352   0.327 139.926  -0.370  11.498 180.330
 Rotating derivatives to standard orientation.
 ***** Axes restored to original set *****
 -------------------------------------------------------------------
 Center     Atomic                   Forces (Hartrees/Bohr)
 Number     Number              X              Y              Z
 -------------------------------------------------------------------
      1        6           0.015221748   -0.001142431   -0.000957122
      2        6          -0.015796781    0.000262974    0.004002586
      3        6           0.005272029    0.000060615    0.000417533
      4        6           0.004074190   -0.000079537   -0.003395502
      5        6          -0.006263524    0.000064507    0.002134496
      6        6           0.000018701    0.000264998   -0.001250904
      7        9           0.001650810   -0.000211610    0.002556060
      8        1          -0.000434931    0.000807323   -0.000750635
      9        1          -0.001277286   -0.000008181   -0.000000028
     10        1           0.000157320    0.000012031   -0.000272564
     11        1          -0.000659179   -0.000012003   -0.001141741
     12        1           0.000395715    0.000853089   -0.000006953
     13        8           0.000026120    0.000001135   -0.000043209
     14        6           0.007261295    0.000007531    0.004421762
     15        1          -0.003646747   -0.002453614   -0.002183048
     16        1          -0.003644807    0.002454169   -0.002187274
     17        1          -0.000691871   -0.000019110   -0.000383311
     18       35           0.000306302   -0.000061135    0.000140345
     19        1          -0.000864393   -0.000377989   -0.000978867
     20       35           0.000124144   -0.000000834    0.000036649
     21        1          -0.001295397   -0.000430044   -0.000211470
     22       35           0.000066543    0.000008118    0.000053195
 -------------------------------------------------------------------
 Cartesian Forces:  Max     0.015796781 RMS     0.003351000
 -----------------------------------------------------------------------------------------------
                       Internal Coordinate Forces (Hartree/Bohr or radian)
  Cent   Atom   N1       Length/X         N2         Alpha/Y        N3         Beta/Z          J
 -----------------------------------------------------------------------------------------------
      1  C 
      2  C        1   0.000001(     1)
      3  C        2  -0.000000(     2)      1  -0.033585(    22)
      4  C        3   0.000000(     3)      2  -0.025541(    23)      1   0.003655(    42)     0
      5  C        4   0.000001(     4)      3  -0.017045(    24)      2   0.005118(    43)     0
      6  C        5   0.000000(     5)      4   0.000333(    25)      3   0.002484(    44)     0
      7  F        1   0.000003(     6)      2  -0.004009(    26)      3   0.001326(    45)     0
      8  H        2   0.000001(     7)      3   0.001776(    27)      4   0.001431(    46)     0
      9  H        3  -0.000000(     8)      4   0.002613(    28)      5  -0.000014(    47)     0
     10  H        4  -0.000000(     9)      5  -0.000644(    29)      6   0.000021(    48)     0
     11  H        5   0.000000(    10)      6  -0.002697(    30)      1  -0.000021(    49)     0
     12  H        6  -0.000000(    11)      1   0.000810(    31)      2   0.001512(    50)     0
     13  O        7  -0.000001(    12)      1   0.000064(    32)      3  -0.000000(    51)     0
     14  C       13   0.000000(    13)      1   0.000110(    33)      2  -0.000000(    52)     0
     15  H       14   0.000000(    14)      1   0.010209(    34)      2   0.000109(    53)     0
     16  H       14  -0.000000(    15)      1   0.010210(    35)      2  -0.000117(    54)     0
     17  H        7   0.000000(    16)      1   0.000943(    36)      2   0.000154(    55)     0
     18  Br      17  -0.000002(    17)      7  -0.000918(    37)      1   0.000029(    56)     0
     19  H        7  -0.000001(    18)      1   0.005702(    38)      2  -0.002947(    57)     0
     20  Br      19  -0.000004(    19)      7  -0.000345(    39)      1  -0.000015(    58)     0
     21  H        7  -0.000001(    20)      1   0.006034(    40)      2   0.003208(    59)     0
     22  Br      21  -0.000000(    21)      7  -0.000230(    41)      1  -0.000001(    60)     0
 -----------------------------------------------------------------------------------------------
 Internal  Forces:  Max     0.033584776 RMS     0.006397269

 ----------------------------------------------------------------------

 Electric dipole moment (input orientation):
 (Debye = 10**-18 statcoulomb cm , SI units = C m)
                  (au)            (Debye)         (10**-30 SI)
   Tot        0.483137D+00      0.122801D+01      0.409621D+01
   x         -0.408803D+00     -0.103907D+01     -0.346598D+01
   y         -0.104825D+00     -0.266439D+00     -0.888744D+00
   z         -0.235187D+00     -0.597787D+00     -0.199400D+01

 Dipole polarizability, Alpha (input orientation).
 (esu units = cm**3 , SI units = C**2 m**2 J**-1)
 Alpha(0;0):
               (au)            (10**-24 esu)      (10**-40 SI)
   iso        0.166774D+03      0.247134D+02      0.274973D+02
   aniso      0.435607D+02      0.645503D+01      0.718218D+01
   xx         0.181297D+03      0.268654D+02      0.298918D+02
   yx        -0.979898D+01     -0.145206D+01     -0.161563D+01
   yy         0.141031D+03      0.208987D+02      0.232529D+02
   zx        -0.511419D+01     -0.757845D+00     -0.843217D+00
   zy        -0.325433D+01     -0.482241D+00     -0.536566D+00
   zz         0.177994D+03      0.263760D+02      0.293473D+02

 ----------------------------------------------------------------------

 Dipole orientation:
     6         -0.00000000          0.00000000         -0.00000000
     6         -2.20634030          0.56574822         -1.26932297
     6         -2.13853118          1.12924100         -3.82281337
     6          0.14840767          1.12517893         -5.10619624
     6          2.37845025          0.55335299         -3.82323719
     6          2.30997884         -0.01564337         -1.24480711
     9         -0.06653105         -0.55287204          2.50536207
     1         -3.99177199          0.56891951         -0.26737557
     1         -3.86968046          1.57314107         -4.81875563
     1          0.20145977          1.56604109         -7.10398105
     1          4.16253381          0.55018409         -4.82442805
     1          4.02215385         -0.46395173         -0.21839206
     8         -0.22581784         -1.97272789          8.93290929
     6         -0.27803210         -2.46378729         11.15425032
     1         -0.52581364         -4.43274257         11.77877105
     1         -0.08087631         -0.94344845         12.56056578
     1         -0.57399814         -4.54101092          2.32765339
    35         -0.88935450         -7.00843216          1.29572491
     1         -4.29510988          2.37595586          3.99184512
    35         -6.39477396          4.04820601          3.82672585
     1          4.80160756          1.23721268          3.98934925
    35          7.25251198          2.33073982          3.81736112

 Electric dipole moment (dipole orientation):
 (Debye = 10**-18 statcoulomb cm , SI units = C m)
                  (au)            (Debye)         (10**-30 SI)
   Tot        0.483137D+00      0.122801D+01      0.409621D+01
   x          0.000000D+00      0.000000D+00      0.000000D+00
   y          0.000000D+00      0.000000D+00      0.000000D+00
   z          0.483137D+00      0.122801D+01      0.409621D+01

 Dipole polarizability, Alpha (dipole orientation).
 (esu units = cm**3 , SI units = C**2 m**2 J**-1)
 Alpha(0;0):
               (au)            (10**-24 esu)      (10**-40 SI)
   iso        0.166774D+03      0.247134D+02      0.274973D+02
   aniso      0.435607D+02      0.645503D+01      0.718218D+01
   xx         0.183380D+03      0.271741D+02      0.302353D+02
   yx        -0.175946D+01     -0.260725D+00     -0.290096D+00
   yy         0.146822D+03      0.217568D+02      0.242077D+02
   zx        -0.552458D+01     -0.818659D+00     -0.910881D+00
   zy        -0.160117D+02     -0.237269D+01     -0.263997D+01
   zz         0.170120D+03      0.252092D+02      0.280491D+02

 ----------------------------------------------------------------------
 1\1\GINC-LOCALHOST\POpt\RM062X\6-311++G(d,p)\C7H10Br3F1O1\LYWU\06-Jan-
 2025\1\\# m062x 6-311++G(d,p) opt=(recalc=5,z-matrix,loose) scrf=(solv
 ent=dichloroethane)\\test\\0,1\C\C,1,d1\C,2,d2,1,120.\C,3,d3,2,120.,1,
 0.,0\C,4,d4,3,120.,2,0.,0\C,5,d5,4,120.,3,0.,0\F,1,d6,2,120.,3,180.,0\
 H,2,d7,3,120.,4,180.,0\H,3,d8,4,120.,5,180.,0\H,4,d9,5,120.,6,180.,0\H
 ,5,d10,6,120.,1,180.,0\H,6,d11,1,120.,2,180.,0\O,7,d12,1,179.9,3,180.,
 0\C,13,d13,1,179.9,2,180.,0\H,14,d14,1,120.,2,90.,0\H,14,d15,1,120.,2,
 -90.,0\H,7,d16,1,100.,2,90.,0\Br,17,d17,7,160.,1,0.,0\H,7,d18,1,100.,2
 ,-30.,0\Br,19,d19,7,160.,1,0.,0\H,7,d20,1,100.,2,-150.,0\Br,21,d21,7,1
 60.,1,0.,0\\d1=1.37984309\d2=1.38422435\d3=1.38773406\d4=1.39466647\d5
 =1.39774393\d6=1.35813442\d7=1.08341522\d8=1.08265908\d9=1.08298131\d1
 0=1.08259716\d11=1.08268823\d12=3.48433062\d13=1.20418011\d14=1.100918
 4\d15=1.10089513\d16=2.12952607\d17=1.42509826\d18=2.83337429\d19=1.42
 311034\d20=2.85488014\d21=1.42311426\\Version=ES64L-G16RevB.01\State=1
 -A\HF=-8170.2495577\RMSD=3.584e-09\RMSF=3.351e-03\Dipole=-0.4088034,-0
 .1048251,-0.2351875\Polar=181.2969333,-9.7989846,141.0313626,-5.114194
 9,-3.2543266,177.9941054\Quadrupole=14.3844472,-14.2672879,-0.1171593,
 -0.0798161,12.7670026,-0.0566839\PG=C01 [X(C7H10Br3F1O1)]\\@


 WE MIGHT AS WELL ATTEMPT TO INTRODUCE A NEW PLANET 
 INTO THE SOLAR SYSTEM, OR TO ANNIHILATE ONE ALREADYIN EXISTENCE, 
 AS TO CREATE OR DESTROY A PARTICLE OF HYDROGEN.
 ALL THE CHANGES WE CAN PRODUCE CONSIST IN SEPARATING PARTICLES
 THAT ARE IN A STATE OF ... COMBINATION, AND JOINING 
 THOSE THAT WERE PREVIOUSLY AT A DISTANCE.

                                    -- JOHN DALTON, 1810
 Job cpu time:       0 days 11 hours  3 minutes 10.6 seconds.
 Elapsed time:       0 days  2 hours 46 minutes  6.5 seconds.
 File lengths (MBytes):  RWF=    627 Int=      0 D2E=      0 Chk=     27 Scr=      1
 Normal termination of Gaussian 16 at Mon Jan  6 21:28:53 2025.
