 Entering Gaussian System, Link 0=g16
 Input=model_H2b.gjf
 Output=model_H2b.log
 Initial command:
 /home/zjxu/prog/g16/l1.exe "/home/zjxu/zjhan/5_model/HBr/chloroform/Gau-43574.inp" -scrdir="/home/zjxu/zjhan/5_model/HBr/chloroform/"
 Entering Link 1 = /home/zjxu/prog/g16/l1.exe PID=     43575.
  
 Copyright (c) 1988-2017, Gaussian, Inc.  All Rights Reserved.
  
 This is part of the Gaussian(R) 16 program.  It is based on
 the Gaussian(R) 09 system (copyright 2009, Gaussian, Inc.),
 the Gaussian(R) 03 system (copyright 2003, Gaussian, Inc.),
 the Gaussian(R) 98 system (copyright 1998, Gaussian, Inc.),
 the Gaussian(R) 94 system (copyright 1995, Gaussian, Inc.),
 the Gaussian 92(TM) system (copyright 1992, Gaussian, Inc.),
 the Gaussian 90(TM) system (copyright 1990, Gaussian, Inc.),
 the Gaussian 88(TM) system (copyright 1988, Gaussian, Inc.),
 the Gaussian 86(TM) system (copyright 1986, Carnegie Mellon
 University), and the Gaussian 82(TM) system (copyright 1983,
 Carnegie Mellon University). Gaussian is a federally registered
 trademark of Gaussian, Inc.
  
 This software contains proprietary and confidential information,
 including trade secrets, belonging to Gaussian, Inc.
  
 This software is provided under written license and may be
 used, copied, transmitted, or stored only in accord with that
 written license.
  
 The following legend is applicable only to US Government
 contracts under FAR:
  
                    RESTRICTED RIGHTS LEGEND
  
 Use, reproduction and disclosure by the US Government is
 subject to restrictions as set forth in subparagraphs (a)
 and (c) of the Commercial Computer Software - Restricted
 Rights clause in FAR 52.227-19.
  
 Gaussian, Inc.
 340 Quinnipiac St., Bldg. 40, Wallingford CT 06492
  
  
 ---------------------------------------------------------------
 Warning -- This program may not be used in any manner that
 competes with the business of Gaussian, Inc. or will provide
 assistance to any competitor of Gaussian, Inc.  The licensee
 of this program is prohibited from giving any competitor of
 Gaussian, Inc. access to this program.  By using this program,
 the user acknowledges that Gaussian, Inc. is engaged in the
 business of creating and licensing software in the field of
 computational chemistry and represents and warrants to the
 licensee that it is not a competitor of Gaussian, Inc. and that
 it will not use this program in any manner prohibited above.
 ---------------------------------------------------------------
  

 Cite this work as:
 Gaussian 16, Revision B.01,
 M. J. Frisch, G. W. Trucks, H. B. Schlegel, G. E. Scuseria, 
 M. A. Robb, J. R. Cheeseman, G. Scalmani, V. Barone, 
 G. A. Petersson, H. Nakatsuji, X. Li, M. Caricato, A. V. Marenich, 
 J. Bloino, B. G. Janesko, R. Gomperts, B. Mennucci, H. P. Hratchian, 
 J. V. Ortiz, A. F. Izmaylov, J. L. Sonnenberg, D. Williams-Young, 
 F. Ding, F. Lipparini, F. Egidi, J. Goings, B. Peng, A. Petrone, 
 T. Henderson, D. Ranasinghe, V. G. Zakrzewski, J. Gao, N. Rega, 
 G. Zheng, W. Liang, M. Hada, M. Ehara, K. Toyota, R. Fukuda, 
 J. Hasegawa, M. Ishida, T. Nakajima, Y. Honda, O. Kitao, H. Nakai, 
 T. Vreven, K. Throssell, J. A. Montgomery, Jr., J. E. Peralta, 
 F. Ogliaro, M. J. Bearpark, J. J. Heyd, E. N. Brothers, K. N. Kudin, 
 V. N. Staroverov, T. A. Keith, R. Kobayashi, J. Normand, 
 K. Raghavachari, A. P. Rendell, J. C. Burant, S. S. Iyengar, 
 J. Tomasi, M. Cossi, J. M. Millam, M. Klene, C. Adamo, R. Cammi, 
 J. W. Ochterski, R. L. Martin, K. Morokuma, O. Farkas, 
 J. B. Foresman, and D. J. Fox, Gaussian, Inc., Wallingford CT, 2016.
 
 ******************************************
 Gaussian 16:  ES64L-G16RevB.01 20-Dec-2017
                27-Mar-2024 
 ******************************************
 %mem=2GB
 %nproc=2
 Will use up to    2 processors via shared memory.
 %chk=model_H2b
 ------------------------------------------------------------
 # m062x 6-311++G(d,p) opt=z-matrix scrf=(solvent=chloroform)
 ------------------------------------------------------------
 1/10=7,18=40,26=3,38=1/1,3;
 2/12=2,17=6,18=5,29=3,40=1/2;
 3/5=4,6=6,7=1111,11=2,25=1,30=1,70=2201,71=1,72=7,74=-55/1,2,3;
 4//1;
 5/5=2,38=5,53=7/2;
 6/7=2,8=2,9=2,10=2,28=1/1;
 7/29=1/1,2,3,16;
 1/10=7,18=40,26=3/3(2);
 2/29=3/2;
 99//99;
 2/29=3/2;
 3/5=4,6=6,7=1111,11=2,25=1,30=1,70=2205,71=1,72=7,74=-55/1,2,3;
 4/5=5,16=3,69=1/1;
 5/5=2,38=5,53=7/2;
 7//1,2,3,16;
 1/18=40,26=3/3(-5);
 2/29=3/2;
 6/7=2,8=2,9=2,10=2,19=2,28=1/1;
 99/9=1/99;
 ----
 test
 ----
 Symbolic Z-matrix:
 Charge =  0 Multiplicity = 1
 C1
 C2                   1    d1
 C3                   2    d2       1     120. 
 C4                   3    d3       2     120.     1     0.       0
 C5                   4    d4       3     120.     2     0.       0
 C6                   5    d5       4     120.     3     0.       0
 F7                   1    d6       2     120.     3     180.     0
 H8                   2    d7       3     120.     4     180.     0
 H9                   3    d8       4     120.     5     180.     0
 H10                  4    d9       5     120.     6     180.     0
 H11                  5    d10      6     120.     1     180.     0
 H12                  6    d11      1     120.     2     180.     0
 O13                  7    d12      1     179.9    3     180.     0
 C14                  13   d13      1     179.9    2     180.     0
 H15                  14   d14      1     120.     2     90.      0
 H16                  14   d15      1     120.     2    -90.      0
 H17                  7    d16      1     100.     2     90.      0
 Br18                 17   d17      7     160.     1     0.       0
 H19                  7    d18      1     100.     2    -90.      0
 Br20                 19   d19      7     160.     1     0.       0
       Variables:
  d1                    1.3                      
  d2                    1.3                      
  d3                    1.3                      
  d4                    1.3                      
  d5                    1.3                      
  d6                    1.4                      
  d7                    1.                       
  d8                    1.                       
  d9                    1.                       
  d10                   1.                       
  d11                   1.                       
  d12                   2.8                      
  d13                   1.2                      
  d14                   1.                       
  d15                   1.                       
  d16                   2.3                      
  d17                   0.9                      
  d18                   2.3                      
  d19                   0.9                      
 

 GradGradGradGradGradGradGradGradGradGradGradGradGradGradGradGradGradGrad
 Berny optimization.
 Initialization pass.
                       ----------------------------
                       !    Initial Parameters    !
                       ! (Angstroms and Degrees)  !
 ----------------------                            ----------------------
 !      Name          Value   Derivative information (Atomic Units)     !
 ------------------------------------------------------------------------
 !       d1          1.3      estimate D2E/DX2                          !
 !       d2          1.3      estimate D2E/DX2                          !
 !       d3          1.3      estimate D2E/DX2                          !
 !       d4          1.3      estimate D2E/DX2                          !
 !       d5          1.3      estimate D2E/DX2                          !
 !       d6          1.4      estimate D2E/DX2                          !
 !       d7          1.0      estimate D2E/DX2                          !
 !       d8          1.0      estimate D2E/DX2                          !
 !       d9          1.0      estimate D2E/DX2                          !
 !       d10         1.0      estimate D2E/DX2                          !
 !       d11         1.0      estimate D2E/DX2                          !
 !       d12         2.8      estimate D2E/DX2                          !
 !       d13         1.2      estimate D2E/DX2                          !
 !       d14         1.0      estimate D2E/DX2                          !
 !       d15         1.0      estimate D2E/DX2                          !
 !       d16         2.3      estimate D2E/DX2                          !
 !       d17         0.9      estimate D2E/DX2                          !
 !       d18         2.3      estimate D2E/DX2                          !
 !       d19         0.9      estimate D2E/DX2                          !
 ------------------------------------------------------------------------
 Trust Radius=3.00D-01 FncErr=1.00D-07 GrdErr=1.00D-06 EigMax=2.50D+02 EigMin=1.00D-04
 Number of steps in this run=     29 maximum allowed number of steps=    100.
 GradGradGradGradGradGradGradGradGradGradGradGradGradGradGradGradGradGrad

 ---------------------------------------------------------------------------------------------------
                            Z-MATRIX (ANGSTROMS AND DEGREES)
   CD    Cent   Atom    N1       Length/X        N2       Alpha/Y        N3        Beta/Z          J
 ---------------------------------------------------------------------------------------------------
      1      1  C 
      2      2  C        1   1.300000(     1)
      3      3  C        2   1.300000(     2)      1  120.000(    20)
      4      4  C        3   1.300000(     3)      2  120.000(    21)      1    0.000(    38)      0
      5      5  C        4   1.300000(     4)      3  120.000(    22)      2    0.000(    39)      0
      6      6  C        5   1.300000(     5)      4  120.000(    23)      3    0.000(    40)      0
      7      7  F        1   1.400000(     6)      2  120.000(    24)      3  180.000(    41)      0
      8      8  H        2   1.000000(     7)      3  120.000(    25)      4  180.000(    42)      0
      9      9  H        3   1.000000(     8)      4  120.000(    26)      5  180.000(    43)      0
     10     10  H        4   1.000000(     9)      5  120.000(    27)      6  180.000(    44)      0
     11     11  H        5   1.000000(    10)      6  120.000(    28)      1  180.000(    45)      0
     12     12  H        6   1.000000(    11)      1  120.000(    29)      2  180.000(    46)      0
     13     13  O        7   2.800000(    12)      1  179.900(    30)      3  180.000(    47)      0
     14     14  C       13   1.200000(    13)      1  179.900(    31)      2  180.000(    48)      0
     15     15  H       14   1.000000(    14)      1  120.000(    32)      2   90.000(    49)      0
     16     16  H       14   1.000000(    15)      1  120.000(    33)      2  -90.000(    50)      0
     17     17  H        7   2.300000(    16)      1  100.000(    34)      2   90.000(    51)      0
     18     18  Br      17   0.900000(    17)      7  160.000(    35)      1    0.000(    52)      0
     19     19  H        7   2.300000(    18)      1  100.000(    36)      2  -90.000(    53)      0
     20     20  Br      19   0.900000(    19)      7  160.000(    37)      1    0.000(    54)      0
 ---------------------------------------------------------------------------------------------------
                         Z-Matrix orientation:                         
 ---------------------------------------------------------------------
 Center     Atomic      Atomic             Coordinates (Angstroms)
 Number     Number       Type             X           Y           Z
 ---------------------------------------------------------------------
      1          6           0        0.000000    0.000000    0.000000
      2          6           0        0.000000    0.000000    1.300000
      3          6           0        1.125833    0.000000    1.950000
      4          6           0        2.251666    0.000000    1.300000
      5          6           0        2.251666    0.000000   -0.000000
      6          6           0        1.125833    0.000000   -0.650000
      7          9           0       -1.212436   -0.000000   -0.700000
      8          1           0       -0.866025   -0.000000    1.800000
      9          1           0        1.125833   -0.000000    2.950000
     10          1           0        3.117691   -0.000000    1.800000
     11          1           0        3.117691   -0.000000   -0.500000
     12          1           0        1.125833   -0.000000   -1.650000
     13          8           0       -3.634860   -0.000000   -2.104230
     14          6           0       -4.672340   -0.000000   -2.707251
     15          1           0       -5.104965    0.866025   -2.957922
     16          1           0       -5.104965   -0.866025   -2.957922
     17          1           0       -1.558318    2.265058   -0.899695
     18         35           0       -1.422973    3.151385   -0.821554
     19          1           0       -1.558318   -2.265058   -0.899695
     20         35           0       -1.422973   -3.151385   -0.821554
 ---------------------------------------------------------------------
                    Distance matrix (angstroms):
                    1          2          3          4          5
     1  C    0.000000
     2  C    1.300000   0.000000
     3  C    2.251666   1.300000   0.000000
     4  C    2.600000   2.251666   1.300000   0.000000
     5  C    2.251666   2.600000   2.251666   1.300000   0.000000
     6  C    1.300000   2.251666   2.600000   2.251666   1.300000
     7  F    1.400000   2.338803   3.534119   4.000000   3.534119
     8  H    1.997498   1.000000   1.997498   3.157531   3.600000
     9  H    3.157531   1.997498   1.000000   1.997498   3.157531
    10  H    3.600000   3.157531   1.997498   1.000000   1.997498
    11  H    3.157531   3.600000   3.157531   1.997498   1.000000
    12  H    1.997498   3.157531   3.600000   3.157531   1.997498
    13  O    4.199999   4.980059   6.253077   6.799997   6.251317
    14  C    5.399997   6.155390   7.436988   7.999995   7.434452
    15  H    5.963218   6.703772   7.978755   8.543999   7.976172
    16  H    5.963218   6.703772   7.978755   8.543999   7.976172
    17  H    2.892800   3.521009   4.522822   4.948245   4.522822
    18  Br   3.554016   4.056731   4.910107   5.285375   4.910107
    19  H    2.892800   3.521009   4.522822   4.948245   4.522822
    20  Br   3.554016   4.056731   4.910107   5.285375   4.910107
                    6          7          8          9         10
     6  C    0.000000
     7  F    2.338803   0.000000
     8  H    3.157531   2.523886   0.000000
     9  H    3.600000   4.334743   2.300000   0.000000
    10  H    3.157531   5.000000   3.983717   2.300000   0.000000
    11  H    1.997498   4.334743   4.600000   3.983717   2.300000
    12  H    1.000000   2.523886   3.983717   4.600000   3.983717
    13  O    4.977849   2.800000   4.786382   6.943301   7.799997
    14  C    6.152324   3.999999   5.899436   8.100821   8.999995
    15  H    6.700697   4.582575   6.430896   8.629970   9.539387
    16  H    6.700697   4.582575   6.430896   8.629970   9.539387
    17  H    3.521009   2.300000   3.591394   5.211076   5.855246
    18  Br   4.056731   3.160748   4.136902   5.536448   6.117303
    19  H    3.521009   2.300000   3.591394   5.211076   5.855246
    20  Br   4.056731   3.160748   4.136902   5.536448   6.117303
                   11         12         13         14         15
    11  H    0.000000
    12  H    2.300000   0.000000
    13  O    6.940497   4.782313   0.000000
    14  C    8.096700   5.893776   1.200000   0.000000
    15  H    8.625744   6.425224   1.907878   1.000000   0.000000
    16  H    8.625744   6.425224   1.907878   1.000000   1.732051
    17  H    5.211076   3.591394   3.300517   4.253807   4.332700
    18  Br   5.536448   4.136902   4.058193   4.903618   4.831563
    19  H    5.211076   3.591394   3.300517   4.253807   5.159329
    20  Br   5.536448   4.136902   4.058193   4.903618   5.853266
                   16         17         18         19         20
    16  H    0.000000
    17  H    5.159329   0.000000
    18  Br   5.853266   0.900000   0.000000
    19  H    4.332700   4.530116   5.418697   0.000000
    20  Br   4.831563   5.418697   6.302770   0.900000   0.000000
 Stoichiometry    C7H9Br2FO
 Framework group  CS[SG(C7H5FO),X(H4Br2)]
 Deg. of freedom    34
 Full point group                 CS      NOp   2
 Largest Abelian subgroup         CS      NOp   2
 Largest concise Abelian subgroup CS      NOp   2
                         Standard orientation:                         
 ---------------------------------------------------------------------
 Center     Atomic      Atomic             Coordinates (Angstroms)
 Number     Number       Type             X           Y           Z
 ---------------------------------------------------------------------
      1          6           0       -0.000780   -1.111712    0.000000
      2          6           0       -1.126613   -1.761712    0.000000
      3          6           0       -1.126613   -3.061712    0.000000
      4          6           0       -0.000780   -3.711712    0.000000
      5          6           0        1.125053   -3.061712    0.000000
      6          6           0        1.125053   -1.761712    0.000000
      7          9           0       -0.000780    0.288288   -0.000000
      8          1           0       -1.992639   -1.261712    0.000000
      9          1           0       -1.992639   -3.561712    0.000000
     10          1           0       -0.000780   -4.711712    0.000000
     11          1           0        1.991078   -3.561712    0.000000
     12          1           0        1.991078   -1.261712    0.000000
     13          8           0        0.004107    3.088284   -0.000000
     14          6           0        0.007597    4.288279   -0.000000
     15          1           0        0.008373    4.788279    0.866025
     16          1           0        0.008373    4.788279   -0.866025
     17          1           0       -0.000780    0.687679    2.265058
     18         35           0       -0.000780    0.531396    3.151385
     19          1           0       -0.000780    0.687679   -2.265058
     20         35           0       -0.000780    0.531396   -3.151385
 ---------------------------------------------------------------------
 Rotational constants (GHZ):           0.4707583           0.3051438           0.1961820
 Standard basis: 6-311++G(d,p) (5D, 7F)
 There are   248 symmetry adapted cartesian basis functions of A'  symmetry.
 There are   124 symmetry adapted cartesian basis functions of A"  symmetry.
 There are   236 symmetry adapted basis functions of A'  symmetry.
 There are   121 symmetry adapted basis functions of A"  symmetry.
   357 basis functions,   593 primitive gaussians,   372 cartesian basis functions
    69 alpha electrons       69 beta electrons
       nuclear repulsion energy      1146.3588038004 Hartrees.
 NAtoms=   20 NActive=   20 NUniq=   17 SFac= 1.38D+00 NAtFMM=   60 NAOKFM=F Big=F
 Integral buffers will be    131072 words long.
 Raffenetti 2 integral format.
 Two-electron integral symmetry is turned on.
 ------------------------------------------------------------------------------
 Polarizable Continuum Model (PCM)
 =================================
 Model                : PCM.
 Atomic radii         : UFF (Universal Force Field).
 Polarization charges : Total charges.
 Charge compensation  : None.
 Solution method      : On-the-fly selection.
 Cavity type          : Scaled VdW (van der Waals Surface) (Alpha=1.100).
 Cavity algorithm     : GePol (No added spheres)
                        Default sphere list used, NSphG=   20.
                        Lebedev-Laikov grids with approx.  5.0 points / Ang**2.
                        Smoothing algorithm: York/Karplus (Gamma=1.0000).
                        Polarization charges: spherical gaussians, with
                                              point-specific exponents (IZeta= 3).
                        Self-potential: point-specific (ISelfS= 7).
                        Self-field    : sphere-specific E.n sum rule (ISelfD= 2).
 1st derivatives      : Analytical E(r).r(x)/FMM algorithm (CHGder, D1EAlg=3).
                        Cavity 1st derivative terms included.
 Solvent              : Chloroform, Eps=   4.711300 Eps(inf)=   2.090627
 ------------------------------------------------------------------------------
 Spheres list:
 ISph  on   Nord     Re0    Alpha      Xe            Ye            Ze
    1   C      1    1.9255  1.100     -0.000780     -1.111712      0.000000
    2   C      2    1.9255  1.100     -1.126613     -1.761712      0.000000
    3   C      3    1.9255  1.100     -1.126613     -3.061712      0.000000
    4   C      4    1.9255  1.100     -0.000780     -3.711712      0.000000
    5   C      5    1.9255  1.100      1.125053     -3.061712      0.000000
    6   C      6    1.9255  1.100      1.125053     -1.761712      0.000000
    7   F      7    1.6820  1.100     -0.000780      0.288288     -0.000000
    8   H      8    1.4430  1.100     -1.992639     -1.261712      0.000000
    9   H      9    1.4430  1.100     -1.992639     -3.561712      0.000000
   10   H     10    1.4430  1.100     -0.000780     -4.711712      0.000000
   11   H     11    1.4430  1.100      1.991078     -3.561712      0.000000
   12   H     12    1.4430  1.100      1.991078     -1.261712      0.000000
   13   O     13    1.7500  1.100      0.004107      3.088284     -0.000000
   14   C     14    1.9255  1.100      0.007597      4.288279     -0.000000
   15   H     15    1.4430  1.100      0.008373      4.788279      0.866025
   16   H     16    1.4430  1.100      0.008373      4.788279     -0.866025
   17   H     17    1.4430  1.100     -0.000780      0.687679      2.265058
   18  Br     18    2.0945  1.100     -0.000780      0.531396      3.151385
   19   H     19    1.4430  1.100     -0.000780      0.687679     -2.265058
   20  Br     20    2.0945  1.100     -0.000780      0.531396     -3.151385
 ------------------------------------------------------------------------------
 One-electron integrals computed using PRISM.
 NBasis=   357 RedAO= T EigKep=  3.61D-06  NBF=   236   121
 NBsUse=   356 1.00D-06 EigRej=  4.00D-07 NBFU=   235   121
 ExpMin= 3.50D-02 ExpMax= 4.40D+05 ExpMxC= 1.51D+04 IAcc=3 IRadAn=         5 AccDes= 0.00D+00
 Harris functional with IExCor= 1009 and IRadAn=       5 diagonalized for initial guess.
 HarFok:  IExCor= 1009 AccDes= 0.00D+00 IRadAn=         5 IDoV= 1 UseB2=F ITyADJ=14
 ICtDFT=  3500011 ScaDFX=  1.000000  1.000000  1.000000  1.000000
 FoFCou: FMM=F IPFlag=           0 FMFlag=      100000 FMFlg1=           0
         NFxFlg=           0 DoJE=T BraDBF=F KetDBF=T FulRan=T
         wScrn=  0.000000 ICntrl=       500 IOpCl=  0 I1Cent=   200000004 NGrid=           0
         NMat0=    1 NMatS0=      1 NMatT0=    0 NMatD0=    1 NMtDS0=    0 NMtDT0=    0
 Petite list used in FoFCou.
 Initial guess orbital symmetries:
       Occupied  (A") (A') (A") (A') (A") (A') (A') (A") (A') (A")
                 (A') (A') (A') (A') (A') (A') (A') (A') (A') (A")
                 (A') (A") (A') (A') (A") (A') (A") (A") (A') (A')
                 (A") (A') (A") (A') (A') (A") (A") (A') (A') (A')
                 (A") (A') (A') (A') (A') (A') (A') (A') (A') (A")
                 (A') (A') (A') (A") (A') (A') (A") (A') (A') (A')
                 (A") (A') (A") (A') (A") (A") (A') (A") (A")
       Virtual   (A') (A") (A") (A') (A') (A") (A') (A') (A') (A')
                 (A") (A') (A") (A') (A") (A') (A") (A") (A') (A')
                 (A') (A') (A') (A") (A') (A") (A') (A") (A') (A')
                 (A') (A') (A") (A') (A') (A") (A') (A") (A') (A')
                 (A") (A') (A') (A") (A') (A') (A") (A') (A') (A')
                 (A") (A') (A') (A') (A') (A') (A') (A") (A') (A')
                 (A') (A') (A") (A') (A') (A') (A') (A") (A') (A")
                 (A') (A') (A") (A') (A') (A') (A') (A") (A") (A')
                 (A') (A") (A') (A') (A") (A') (A') (A') (A') (A")
                 (A") (A') (A') (A') (A") (A') (A") (A') (A") (A")
                 (A") (A') (A') (A') (A") (A') (A') (A') (A") (A')
                 (A') (A') (A') (A') (A') (A") (A') (A') (A') (A")
                 (A') (A") (A') (A') (A") (A') (A") (A") (A') (A')
                 (A") (A') (A') (A") (A") (A") (A') (A') (A') (A')
                 (A') (A") (A') (A') (A') (A") (A") (A') (A') (A")
                 (A') (A") (A') (A") (A') (A') (A") (A') (A') (A")
                 (A') (A") (A') (A") (A') (A') (A') (A') (A') (A")
                 (A') (A") (A") (A") (A") (A') (A') (A') (A") (A')
                 (A") (A') (A') (A') (A") (A') (A") (A') (A') (A")
                 (A') (A") (A') (A') (A") (A') (A') (A') (A") (A')
                 (A") (A') (A') (A") (A') (A') (A") (A') (A') (A')
                 (A") (A') (A") (A") (A') (A") (A') (A') (A') (A")
                 (A') (A') (A') (A') (A') (A') (A') (A") (A') (A')
                 (A') (A") (A') (A") (A") (A') (A') (A') (A") (A')
                 (A') (A") (A") (A') (A') (A') (A") (A') (A') (A')
                 (A") (A') (A') (A') (A') (A") (A') (A") (A') (A')
                 (A') (A") (A") (A') (A") (A') (A') (A") (A') (A')
                 (A') (A') (A') (A') (A') (A') (A") (A') (A') (A")
                 (A') (A") (A') (A') (A") (A') (A")
 The electronic state of the initial guess is 1-A'.
 Requested convergence on RMS density matrix=1.00D-08 within 128 cycles.
 Requested convergence on MAX density matrix=1.00D-06.
 Requested convergence on             energy=1.00D-06.
 No special actions if energy rises.
 Inv3:  Mode=1 IEnd=    14785200.
 Iteration    1 A*A^-1 deviation from unit magnitude is 4.88D-15 for   2215.
 Iteration    1 A*A^-1 deviation from orthogonality  is 1.69D-15 for   2203   2201.
 Iteration    1 A^-1*A deviation from unit magnitude is 4.66D-15 for   2215.
 Iteration    1 A^-1*A deviation from orthogonality  is 1.99D-15 for   2203   2201.
 Error on total polarization charges =  0.01371
 SCF Done:  E(RM062X) =  -5594.65171983     A.U. after   14 cycles
            NFock= 14  Conv=0.78D-08     -V/T= 2.0002

 **********************************************************************

            Population analysis using the SCF Density.

 **********************************************************************

 Orbital symmetries:
       Occupied  (A") (A') (A") (A') (A") (A') (A') (A") (A') (A")
                 (A') (A') (A') (A') (A') (A') (A') (A') (A') (A")
                 (A') (A") (A') (A') (A") (A') (A") (A") (A') (A')
                 (A') (A") (A") (A') (A") (A') (A") (A') (A') (A')
                 (A") (A') (A') (A') (A') (A') (A') (A') (A") (A')
                 (A') (A") (A') (A') (A") (A') (A') (A') (A") (A')
                 (A') (A') (A") (A") (A') (A') (A") (A") (A")
       Virtual   (A') (A') (A') (A') (A") (A') (A") (A") (A') (A')
                 (A") (A') (A") (A") (A') (A') (A') (A") (A') (A')
                 (A") (A") (A') (A') (A') (A") (A') (A') (A') (A')
                 (A') (A") (A') (A") (A') (A") (A') (A") (A') (A')
                 (A') (A") (A') (A') (A') (A") (A') (A') (A') (A")
                 (A') (A') (A") (A') (A") (A') (A') (A') (A') (A')
                 (A') (A') (A") (A') (A') (A') (A") (A') (A') (A")
                 (A') (A') (A') (A') (A") (A') (A') (A") (A') (A')
                 (A') (A") (A') (A") (A') (A') (A") (A') (A") (A')
                 (A") (A') (A") (A') (A") (A') (A') (A") (A') (A")
                 (A") (A') (A') (A') (A") (A') (A') (A') (A") (A')
                 (A') (A') (A') (A') (A') (A') (A") (A') (A') (A')
                 (A') (A") (A') (A') (A") (A") (A') (A') (A") (A")
                 (A') (A') (A") (A") (A") (A") (A') (A') (A') (A')
                 (A') (A") (A') (A') (A") (A') (A') (A') (A") (A')
                 (A") (A") (A") (A') (A') (A") (A') (A") (A') (A')
                 (A") (A') (A') (A') (A") (A') (A') (A') (A") (A')
                 (A") (A') (A") (A") (A') (A") (A') (A") (A') (A')
                 (A") (A') (A') (A') (A") (A') (A') (A") (A') (A")
                 (A') (A") (A') (A') (A") (A') (A') (A') (A') (A")
                 (A') (A') (A') (A') (A") (A') (A') (A') (A") (A")
                 (A') (A") (A') (A") (A") (A") (A') (A') (A') (A")
                 (A') (A') (A') (A') (A') (A") (A') (A') (A') (A')
                 (A') (A") (A') (A") (A") (A') (A') (A') (A') (A")
                 (A') (A') (A') (A") (A") (A') (A') (A") (A') (A')
                 (A") (A') (A') (A') (A') (A") (A') (A") (A') (A')
                 (A') (A") (A") (A') (A") (A') (A') (A") (A') (A')
                 (A') (A') (A') (A') (A') (A') (A") (A') (A') (A")
                 (A') (A") (A') (A') (A") (A') (A")
 The electronic state is 1-A'.
 Alpha  occ. eigenvalues -- -485.32571-485.32571 -63.32918 -63.32918 -57.15467
 Alpha  occ. eigenvalues --  -57.15467 -57.15285 -57.15285 -57.15285 -57.15285
 Alpha  occ. eigenvalues --  -25.25164 -19.63814 -10.61554 -10.61268 -10.52420
 Alpha  occ. eigenvalues --  -10.52417 -10.52180 -10.52168 -10.51466  -9.02853
 Alpha  occ. eigenvalues --   -9.02853  -6.86459  -6.86458  -6.84274  -6.84274
 Alpha  occ. eigenvalues --   -6.84273  -6.84273  -2.90163  -2.90163  -2.88359
 Alpha  occ. eigenvalues --   -2.88358  -2.88358  -2.88358  -2.87122  -2.87121
 Alpha  occ. eigenvalues --   -2.87121  -2.87121  -1.35761  -1.18990  -1.03146
 Alpha  occ. eigenvalues --   -0.99266  -0.99219  -0.89338  -0.88439  -0.75016
 Alpha  occ. eigenvalues --   -0.73798  -0.72346  -0.66392  -0.60488  -0.59068
 Alpha  occ. eigenvalues --   -0.58734  -0.57846  -0.54549  -0.53892  -0.53634
 Alpha  occ. eigenvalues --   -0.53411  -0.52553  -0.49959  -0.47715  -0.47381
 Alpha  occ. eigenvalues --   -0.44494  -0.42082  -0.37584  -0.37552  -0.37546
 Alpha  occ. eigenvalues --   -0.37494  -0.34911  -0.33837  -0.32734
 Alpha virt. eigenvalues --   -0.00538  -0.00121   0.00829   0.01479   0.01961
 Alpha virt. eigenvalues --    0.02322   0.02524   0.03082   0.03618   0.03920
 Alpha virt. eigenvalues --    0.04064   0.04647   0.05725   0.05975   0.06199
 Alpha virt. eigenvalues --    0.06927   0.07276   0.07518   0.08491   0.08705
 Alpha virt. eigenvalues --    0.10649   0.10673   0.10971   0.11846   0.12746
 Alpha virt. eigenvalues --    0.12823   0.13213   0.13535   0.13637   0.14169
 Alpha virt. eigenvalues --    0.14193   0.14826   0.15958   0.15979   0.16148
 Alpha virt. eigenvalues --    0.16577   0.17631   0.18184   0.18217   0.18526
 Alpha virt. eigenvalues --    0.18976   0.19309   0.20030   0.20861   0.21939
 Alpha virt. eigenvalues --    0.22740   0.22875   0.23394   0.24071   0.26333
 Alpha virt. eigenvalues --    0.26474   0.27278   0.28208   0.30083   0.31695
 Alpha virt. eigenvalues --    0.32084   0.32280   0.33316   0.35157   0.36422
 Alpha virt. eigenvalues --    0.36641   0.38561   0.39080   0.40805   0.41001
 Alpha virt. eigenvalues --    0.41528   0.42010   0.42787   0.43687   0.44023
 Alpha virt. eigenvalues --    0.45513   0.45540   0.46491   0.46641   0.46868
 Alpha virt. eigenvalues --    0.47265   0.52796   0.54085   0.54997   0.55619
 Alpha virt. eigenvalues --    0.57300   0.58535   0.58614   0.59224   0.59606
 Alpha virt. eigenvalues --    0.60307   0.62139   0.62958   0.63154   0.63726
 Alpha virt. eigenvalues --    0.65065   0.65415   0.66156   0.66261   0.67278
 Alpha virt. eigenvalues --    0.68095   0.68595   0.68973   0.70235   0.70303
 Alpha virt. eigenvalues --    0.71466   0.72602   0.73206   0.75748   0.76152
 Alpha virt. eigenvalues --    0.77741   0.81501   0.81626   0.84412   0.85483
 Alpha virt. eigenvalues --    0.85837   0.89128   0.89971   0.90128   0.94532
 Alpha virt. eigenvalues --    0.95616   0.97726   1.00780   1.01537   1.02247
 Alpha virt. eigenvalues --    1.02476   1.03515   1.06064   1.06926   1.07972
 Alpha virt. eigenvalues --    1.08205   1.11568   1.12175   1.15370   1.16138
 Alpha virt. eigenvalues --    1.17303   1.18328   1.21213   1.23994   1.27975
 Alpha virt. eigenvalues --    1.28631   1.31905   1.35210   1.35285   1.41779
 Alpha virt. eigenvalues --    1.52313   1.52527   1.53727   1.55698   1.58256
 Alpha virt. eigenvalues --    1.59048   1.61762   1.64782   1.65047   1.65162
 Alpha virt. eigenvalues --    1.67580   1.67643   1.68493   1.69613   1.70647
 Alpha virt. eigenvalues --    1.73548   1.75083   1.75659   1.76492   1.76720
 Alpha virt. eigenvalues --    1.82344   1.82437   1.84882   1.85581   1.85695
 Alpha virt. eigenvalues --    1.90616   1.94390   1.94967   1.97267   1.99513
 Alpha virt. eigenvalues --    2.01283   2.02812   2.03432   2.04480   2.04610
 Alpha virt. eigenvalues --    2.05486   2.05681   2.05740   2.06626   2.07721
 Alpha virt. eigenvalues --    2.12592   2.17243   2.17448   2.18014   2.19544
 Alpha virt. eigenvalues --    2.20143   2.21827   2.21900   2.31689   2.36918
 Alpha virt. eigenvalues --    2.40827   2.46564   2.49344   2.50779   2.50989
 Alpha virt. eigenvalues --    2.58235   2.64598   2.67199   2.70858   2.72951
 Alpha virt. eigenvalues --    2.75366   2.77188   2.78508   2.80004   2.80546
 Alpha virt. eigenvalues --    2.81339   2.86582   2.86719   2.88218   2.89870
 Alpha virt. eigenvalues --    2.91092   2.96559   2.98568   2.98607   2.98866
 Alpha virt. eigenvalues --    2.99431   3.03983   3.08826   3.11944   3.24666
 Alpha virt. eigenvalues --    3.27338   3.35872   3.39886   3.41962   3.55588
 Alpha virt. eigenvalues --    3.60332   3.61699   3.65191   3.75215   3.76910
 Alpha virt. eigenvalues --    3.87772   3.88698   3.99909   4.00689   4.04903
 Alpha virt. eigenvalues --    4.09209   4.14200   4.17865   4.19343   4.25014
 Alpha virt. eigenvalues --    4.25871   4.26122   4.27281   4.27967   4.28047
 Alpha virt. eigenvalues --    4.28800   4.30862   4.32773   4.34156   4.39085
 Alpha virt. eigenvalues --    4.90787   4.91244   4.95712   4.96437   5.11724
 Alpha virt. eigenvalues --    5.25071   5.83496   6.58137   6.62288   6.91803
 Alpha virt. eigenvalues --    7.00016   7.02416   7.62231   7.64167   7.65759
 Alpha virt. eigenvalues --    7.67270   7.82322   7.87083  23.73689  24.17497
 Alpha virt. eigenvalues --   24.27267  24.31735  24.54376  24.57433  24.73027
 Alpha virt. eigenvalues --   48.52107  48.53706  50.07435  66.98563 290.77797
 Alpha virt. eigenvalues --  290.79827 290.81602 290.82986 291.01759 291.06173
 Alpha virt. eigenvalues -- 1021.145951021.16621
          Condensed to atoms (all electrons):
               1          2          3          4          5          6
     1  C   13.542594  -1.345696  -2.229821  -0.372965  -2.230603  -1.345476
     2  C   -1.345696  14.300448   2.200745  -0.891300  -1.024155  -7.562753
     3  C   -2.229821   2.200745   6.680251   0.518193  -0.296249  -1.027510
     4  C   -0.372965  -0.891300   0.518193   7.221590   0.519419  -0.881473
     5  C   -2.230603  -1.024155  -0.296249   0.519419   6.680856   2.197165
     6  C   -1.345476  -7.562753  -1.027510  -0.881473   2.197165  14.300290
     7  F    0.762046  -0.298698  -0.079830   0.022736  -0.080005  -0.298289
     8  H   -0.109431   0.551475  -0.062463  -0.036058   0.018945  -0.032987
     9  H    0.001721  -0.036843   0.420002  -0.123384   0.005481   0.058911
    10  H    0.049187  -0.027404  -0.080624   0.534502  -0.080770  -0.027060
    11  H    0.002121   0.059268   0.005419  -0.123525   0.420019  -0.037391
    12  H   -0.108612  -0.032034   0.019025  -0.036297  -0.063032   0.550354
    13  O    0.075544  -0.024822  -0.003145  -0.000377  -0.003130  -0.024926
    14  C    0.010004  -0.003447  -0.000788   0.000723  -0.000788  -0.003413
    15  H   -0.001088   0.000239   0.000072  -0.000095   0.000070   0.000222
    16  H   -0.001088   0.000239   0.000072  -0.000095   0.000070   0.000222
    17  H   -0.112996   0.028344   0.020727  -0.025141   0.020103   0.023344
    18  Br   0.259311  -0.066802  -0.052724   0.042656  -0.052150  -0.062363
    19  H   -0.112996   0.028344   0.020727  -0.025141   0.020103   0.023344
    20  Br   0.259311  -0.066802  -0.052724   0.042656  -0.052150  -0.062363
               7          8          9         10         11         12
     1  C    0.762046  -0.109431   0.001721   0.049187   0.002121  -0.108612
     2  C   -0.298698   0.551475  -0.036843  -0.027404   0.059268  -0.032034
     3  C   -0.079830  -0.062463   0.420002  -0.080624   0.005419   0.019025
     4  C    0.022736  -0.036058  -0.123384   0.534502  -0.123525  -0.036297
     5  C   -0.080005   0.018945   0.005481  -0.080770   0.420019  -0.063032
     6  C   -0.298289  -0.032987   0.058911  -0.027060  -0.037391   0.550354
     7  F    9.187428  -0.012531  -0.002349   0.001910  -0.002337  -0.012556
     8  H   -0.012531   0.485426  -0.008436  -0.000308   0.002679   0.000853
     9  H   -0.002349  -0.008436   0.480387  -0.016269   0.002010   0.002686
    10  H    0.001910  -0.000308  -0.016269   0.492524  -0.016275  -0.000307
    11  H   -0.002337   0.002679   0.002010  -0.016275   0.480393  -0.008458
    12  H   -0.012556   0.000853   0.002686  -0.000307  -0.008458   0.485579
    13  O    0.001016   0.001451  -0.000011   0.000021  -0.000011   0.001458
    14  C    0.002902  -0.000219  -0.000065   0.000024  -0.000065  -0.000216
    15  H   -0.000015  -0.000027   0.000008  -0.000003   0.000008  -0.000026
    16  H   -0.000015  -0.000027   0.000008  -0.000003   0.000008  -0.000026
    17  H   -0.044759   0.008479   0.003583  -0.002449   0.003597   0.008425
    18  Br   0.015086  -0.006363  -0.004748   0.003051  -0.004758  -0.006319
    19  H   -0.044759   0.008479   0.003583  -0.002449   0.003597   0.008425
    20  Br   0.015086  -0.006363  -0.004748   0.003051  -0.004758  -0.006319
              13         14         15         16         17         18
     1  C    0.075544   0.010004  -0.001088  -0.001088  -0.112996   0.259311
     2  C   -0.024822  -0.003447   0.000239   0.000239   0.028344  -0.066802
     3  C   -0.003145  -0.000788   0.000072   0.000072   0.020727  -0.052724
     4  C   -0.000377   0.000723  -0.000095  -0.000095  -0.025141   0.042656
     5  C   -0.003130  -0.000788   0.000070   0.000070   0.020103  -0.052150
     6  C   -0.024926  -0.003413   0.000222   0.000222   0.023344  -0.062363
     7  F    0.001016   0.002902  -0.000015  -0.000015  -0.044759   0.015086
     8  H    0.001451  -0.000219  -0.000027  -0.000027   0.008479  -0.006363
     9  H   -0.000011  -0.000065   0.000008   0.000008   0.003583  -0.004748
    10  H    0.000021   0.000024  -0.000003  -0.000003  -0.002449   0.003051
    11  H   -0.000011  -0.000065   0.000008   0.000008   0.003597  -0.004758
    12  H    0.001458  -0.000216  -0.000026  -0.000026   0.008425  -0.006319
    13  O    8.196354   0.257407  -0.088566  -0.088566   0.020321  -0.018200
    14  C    0.257407   4.829464   0.411223   0.411223  -0.012541   0.006866
    15  H   -0.088566   0.411223   0.688715  -0.132254   0.002658  -0.000579
    16  H   -0.088566   0.411223  -0.132254   0.688715   0.001058  -0.000745
    17  H    0.020321  -0.012541   0.002658   0.001058   1.164709   0.013345
    18  Br  -0.018200   0.006866  -0.000579  -0.000745   0.013345  34.785797
    19  H    0.020321  -0.012541   0.001058   0.002658   0.027167  -0.017763
    20  Br  -0.018200   0.006866  -0.000745  -0.000579  -0.017763   0.011484
              19         20
     1  C   -0.112996   0.259311
     2  C    0.028344  -0.066802
     3  C    0.020727  -0.052724
     4  C   -0.025141   0.042656
     5  C    0.020103  -0.052150
     6  C    0.023344  -0.062363
     7  F   -0.044759   0.015086
     8  H    0.008479  -0.006363
     9  H    0.003583  -0.004748
    10  H   -0.002449   0.003051
    11  H    0.003597  -0.004758
    12  H    0.008425  -0.006319
    13  O    0.020321  -0.018200
    14  C   -0.012541   0.006866
    15  H    0.001058  -0.000745
    16  H    0.002658  -0.000579
    17  H    0.027167  -0.017763
    18  Br  -0.017763   0.011484
    19  H    1.164709   0.013345
    20  Br   0.013345  34.785797
 Mulliken charges:
               1
     1  C   -0.991066
     2  C    0.211653
     3  C    0.000643
     4  C   -0.386623
     5  C    0.000801
     6  C    0.212152
     7  F   -0.132069
     8  H    0.197424
     9  H    0.218472
    10  H    0.169653
    11  H    0.218458
    12  H    0.197398
    13  O   -0.303940
    14  C    0.097379
    15  H    0.119126
    16  H    0.119126
    17  H   -0.130209
    18  Br   0.155916
    19  H   -0.130209
    20  Br   0.155916
 Sum of Mulliken charges =  -0.00000
 Mulliken charges with hydrogens summed into heavy atoms:
               1
     1  C   -0.991066
     2  C    0.409077
     3  C    0.219115
     4  C   -0.216970
     5  C    0.219259
     6  C    0.409550
     7  F   -0.132069
    13  O   -0.303940
    14  C    0.335630
    18  Br   0.025707
    20  Br   0.025707
 Electronic spatial extent (au):  <R**2>=           4814.6469
 Charge=              0.0000 electrons
 Dipole moment (field-independent basis, Debye):
    X=              0.0080    Y=              0.7594    Z=             -0.0000  Tot=              0.7594
 Quadrupole moment (field-independent basis, Debye-Ang):
   XX=            -83.9616   YY=            -58.9397   ZZ=            -99.5878
   XY=              0.0474   XZ=             -0.0000   YZ=             -0.0000
 Traceless Quadrupole moment (field-independent basis, Debye-Ang):
   XX=             -3.1319   YY=             21.8900   ZZ=            -18.7581
   XY=              0.0474   XZ=             -0.0000   YZ=             -0.0000
 Octapole moment (field-independent basis, Debye-Ang**2):
  XXX=             -0.0373  YYY=            135.9823  ZZZ=             -0.0000  XYY=              0.2141
  XXY=              5.7281  XXZ=              0.0000  XZZ=              0.0031  YZZ=             21.6750
  YYZ=              0.0000  XYZ=             -0.0000
 Hexadecapole moment (field-independent basis, Debye-Ang**3):
 XXXX=           -285.0668 YYYY=          -1805.9413 ZZZZ=          -2337.0576 XXXY=             -0.9375
 XXXZ=              0.0000 YYYX=              0.1528 YYYZ=              0.0000 ZZZX=              0.0000
 ZZZY=              0.0000 XXYY=           -448.0808 XXZZ=           -457.9659 YYZZ=           -849.7076
 XXYZ=             -0.0000 YYXZ=             -0.0000 ZZXY=             -0.3051
 N-N= 1.146358803800D+03 E-N=-1.565080554422D+04  KE= 5.593576011738D+03
 Symmetry A'   KE= 3.000344602418D+03
 Symmetry A"   KE= 2.593231409320D+03
 D1PCM: PCM CHGder 1st derivatives, ID1Alg=3 FixD1E=F DoIter=F DoCFld=F I1PDM=0.
 Calling FoFJK, ICntrl=      2127 FMM=F ISym2X=1 I1Cent= 0 IOpClX= 0 NMat=1 NMatS=1 NMatT=0.
 ***** Axes restored to original set *****
 -------------------------------------------------------------------
 Center     Atomic                   Forces (Hartrees/Bohr)
 Number     Number              X              Y              Z
 -------------------------------------------------------------------
      1        6          -0.088038971   -0.000000000   -0.050827448
      2        6          -0.053471386   -0.000000000    0.015106462
      3        6           0.002597178    0.000000000    0.037257524
      4        6           0.039179064   -0.000000000    0.022619925
      5        6           0.033564357    0.000000000   -0.016379345
      6        6          -0.013654027    0.000000000   -0.053861379
      7        9           0.023664339    0.000000000    0.013666664
      8        1          -0.065696022   -0.000000000    0.035897276
      9        1          -0.001684011    0.000000000    0.073803123
     10        1           0.064292980   -0.000000000    0.037119589
     11        1           0.063073410    0.000000000   -0.038359932
     12        1          -0.001760085   -0.000000000   -0.074843017
     13        8           0.015050744    0.000000000    0.008679764
     14        6           0.062478924   -0.000000000    0.036407481
     15        1          -0.039217290    0.071694281   -0.022806368
     16        1          -0.039217290   -0.071694281   -0.022806368
     17        1          -0.179073181   -1.168968918   -0.103389901
     18       35           0.178492224    1.168948031    0.103052927
     19        1          -0.179073181    1.168968918   -0.103389901
     20       35           0.178492224   -1.168948031    0.103052927
 -------------------------------------------------------------------
 Cartesian Forces:  Max     1.168968918 RMS     0.308382002
 -----------------------------------------------------------------------------------------------
                       Internal Coordinate Forces (Hartree/Bohr or radian)
  Cent   Atom   N1       Length/X         N2         Alpha/Y        N3         Beta/Z          J
 -----------------------------------------------------------------------------------------------
      1  C 
      2  C        1   0.037188(     1)
      3  C        2   0.153248(     2)      1   0.161558(    20)
      4  C        3   0.221803(     3)      2   0.414782(    21)      1   0.000000(    38)     0
      5  C        4   0.184616(     4)      3   0.451243(    22)      2   0.000000(    39)     0
      6  C        5   0.078874(     5)      4   0.253368(    23)      3   0.000000(    40)     0
      7  F        1  -0.024938(     6)      2   0.000012(    24)      3   0.000000(    41)     0
      8  H        2   0.074843(     7)      3   0.003326(    25)      4  -0.000000(    42)     0
      9  H        3   0.073803(     8)      4   0.003182(    26)      5   0.000000(    43)     0
     10  H        4   0.074239(     9)      5   0.000000(    27)      6  -0.000000(    44)     0
     11  H        5   0.073803(    10)      6  -0.003182(    28)      1   0.000000(    45)     0
     12  H        6   0.074843(    11)      1  -0.003326(    29)      2  -0.000000(    46)     0
     13  O        7   0.001046(    12)      1  -0.000005(    30)      3  -0.000000(    47)     0
     14  C       13   0.018421(    13)      1   0.000105(    31)      2  -0.000000(    48)     0
     15  H       14   0.084772(    14)      1   0.006503(    32)      2   0.000118(    49)     0
     16  H       14   0.084772(    15)      1   0.006503(    33)      2  -0.000118(    50)     0
     17  H        7   0.000096(    16)      1   0.002910(    34)      2   0.000005(    51)     0
     18  Br      17   1.186979(    17)      7   0.000020(    35)      1  -0.000000(    52)     0
     19  H        7   0.000096(    18)      1   0.002910(    36)      2  -0.000005(    53)     0
     20  Br      19   1.186979(    19)      7   0.000020(    37)      1   0.000000(    54)     0
 -----------------------------------------------------------------------------------------------
 Internal  Forces:  Max     1.186978887 RMS     0.252441925

 GradGradGradGradGradGradGradGradGradGradGradGradGradGradGradGradGradGrad
 Berny optimization.
 Search for a local minimum.
 Step number   1 out of a maximum of   29
 All quantities printed in internal units (Hartrees-Bohrs-Radians)
 Second derivative matrix not updated -- first step.
 The second derivative matrix:
                          d1        d2        d3        d4        d5
           d1           0.95300
           d2          -0.05489   0.95300
           d3          -0.33597   0.33597   1.34386
           d4          -0.28107   0.05489   0.33597   0.95300
           d5           0.05489  -0.28107  -0.33597  -0.05489   0.95300
           d6           0.00000   0.00000   0.00000  -0.00000  -0.00000
           d7           0.00000   0.00000  -0.00000  -0.00000  -0.00000
           d8          -0.00000  -0.00000   0.00000   0.00000   0.00000
           d9           0.00000   0.00000   0.00000  -0.00000  -0.00000
           d10         -0.00000  -0.00000  -0.00000   0.00000   0.00000
           d11          0.00000  -0.00000  -0.00000  -0.00000  -0.00000
           d12          0.00000   0.00000  -0.00000  -0.00000  -0.00000
           d13          0.00000   0.00000  -0.00000  -0.00000  -0.00000
           d14         -0.00000  -0.00000  -0.00000   0.00000   0.00000
           d15          0.00000   0.00000  -0.00000  -0.00000  -0.00000
           d16         -0.00000  -0.00000  -0.00000   0.00000   0.00000
           d17         -0.00000  -0.00000  -0.00000   0.00000   0.00000
           d18         -0.00000  -0.00000   0.00000   0.00000   0.00000
           d19         -0.00000  -0.00000  -0.00000   0.00000   0.00000
                          d6        d7        d8        d9        d10
           d6           0.45621
           d7          -0.00000   0.47688
           d8          -0.00000   0.00000   0.47688
           d9           0.00000  -0.00000   0.00000   0.47688
           d10          0.00000  -0.00000  -0.00000   0.00000   0.47688
           d11          0.00000  -0.00000   0.00000   0.00000   0.00000
           d12         -0.00000   0.00000  -0.00000   0.00000   0.00000
           d13         -0.00000   0.00000  -0.00000   0.00000   0.00000
           d14          0.00000   0.00000   0.00000  -0.00000  -0.00000
           d15         -0.00000  -0.00000  -0.00000   0.00000   0.00000
           d16         -0.00000  -0.00000   0.00000  -0.00000  -0.00000
           d17          0.00000  -0.00000   0.00000  -0.00000  -0.00000
           d18          0.00000   0.00000   0.00000  -0.00000  -0.00000
           d19         -0.00000   0.00000   0.00000  -0.00000  -0.00000
                          d11       d12       d13       d14       d15
           d11          0.47688
           d12          0.00000   0.02330
           d13          0.00000  -0.00000   1.04823
           d14         -0.00000   0.00000   0.00000   0.47688
           d15          0.00000   0.00000  -0.00000   0.00000   0.47688
           d16         -0.00000   0.00000   0.00000   0.00000   0.00000
           d17         -0.00000  -0.00000  -0.00000   0.00000  -0.00000
           d18          0.00000  -0.00000   0.00000   0.00000  -0.00000
           d19          0.00000   0.00000   0.00000  -0.00000   0.00000
                          d16       d17       d18       d19
           d16          0.02721
           d17          0.00000   1.79711
           d18          0.00000   0.00000   0.02721
           d19          0.00000  -0.00000  -0.00000   1.79711
 ITU=  0
     Eigenvalues ---    0.02330   0.02721   0.02721   0.45621   0.47688
     Eigenvalues ---    0.47688   0.47688   0.47688   0.47688   0.47688
     Eigenvalues ---    0.47688   0.67193   0.67193   0.67193   1.04823
     Eigenvalues ---    1.12429   1.79711   1.79711   2.01579
 RFO step:  Lambda=-1.06436170D+00 EMin= 2.33007068D-02
 Linear search not attempted -- first point.
 Maximum step size (   0.300) exceeded in Quadratic search.
    -- Step size scaled by   0.482
 Variable       Old X    -DE/DX   Delta X   Delta X   Delta X     New X
                                 (Linear)    (Quad)   (Total)
    d1        2.45664   0.03719   0.00000   0.02144   0.02144   2.47809
    d2        2.45664   0.15325   0.00000   0.03352   0.03352   2.49016
    d3        2.45664   0.22180   0.00000   0.04142   0.04142   2.49807
    d4        2.45664   0.18462   0.00000   0.04013   0.04013   2.49677
    d5        2.45664   0.07887   0.00000   0.03092   0.03092   2.48757
    d6        2.64562  -0.02494   0.00000  -0.00790  -0.00790   2.63771
    d7        1.88973   0.07484   0.00000   0.02341   0.02341   1.91313
    d8        1.88973   0.07380   0.00000   0.02308   0.02308   1.91281
    d9        1.88973   0.07424   0.00000   0.02322   0.02322   1.91294
   d10        1.88973   0.07380   0.00000   0.02308   0.02308   1.91281
   d11        1.88973   0.07484   0.00000   0.02341   0.02341   1.91313
   d12        5.29123   0.00105   0.00000   0.00046   0.00046   5.29170
   d13        2.26767   0.01842   0.00000   0.00420   0.00420   2.27187
   d14        1.88973   0.08477   0.00000   0.02651   0.02651   1.91624
   d15        1.88973   0.08477   0.00000   0.02651   0.02651   1.91624
   d16        4.34637   0.00010   0.00000   0.00004   0.00004   4.34641
   d17        1.70075   1.18698   0.00000   0.19994   0.19994   1.90069
   d18        4.34637   0.00010   0.00000   0.00004   0.00004   4.34641
   d19        1.70075   1.18698   0.00000   0.19994   0.19994   1.90069
         Item               Value     Threshold  Converged?
 Maximum Force            1.186979     0.000450     NO 
 RMS     Force            0.395711     0.000300     NO 
 Maximum Displacement     0.199936     0.001800     NO 
 RMS     Displacement     0.068825     0.001200     NO 
 Predicted change in Energy=-4.372744D-01
 GradGradGradGradGradGradGradGradGradGradGradGradGradGradGradGradGradGrad

 ---------------------------------------------------------------------------------------------------
                            Z-MATRIX (ANGSTROMS AND DEGREES)
   CD    Cent   Atom    N1       Length/X        N2       Alpha/Y        N3        Beta/Z          J
 ---------------------------------------------------------------------------------------------------
      1      1  C 
      2      2  C        1   1.311348(     1)
      3      3  C        2   1.317735(     2)      1  120.000(    20)
      4      4  C        3   1.321921(     3)      2  120.000(    21)      1    0.000(    38)      0
      5      5  C        4   1.321234(     4)      3  120.000(    22)      2    0.000(    39)      0
      6      6  C        5   1.316363(     5)      4  120.000(    23)      3    0.000(    40)      0
      7      7  F        1   1.395817(     6)      2  120.000(    24)      3  180.000(    41)      0
      8      8  H        2   1.012386(     7)      3  120.000(    25)      4  180.000(    42)      0
      9      9  H        3   1.012214(     8)      4  120.000(    26)      5  180.000(    43)      0
     10     10  H        4   1.012286(     9)      5  120.000(    27)      6  180.000(    44)      0
     11     11  H        5   1.012214(    10)      6  120.000(    28)      1  180.000(    45)      0
     12     12  H        6   1.012386(    11)      1  120.000(    29)      2  180.000(    46)      0
     13     13  O        7   2.800245(    12)      1  179.900(    30)      3  180.000(    47)      0
     14     14  C       13   1.202224(    13)      1  179.900(    31)      2  180.000(    48)      0
     15     15  H       14   1.014029(    14)      1  120.000(    32)      2   90.000(    49)      0
     16     16  H       14   1.014029(    15)      1  120.000(    33)      2  -90.000(    50)      0
     17     17  H        7   2.300022(    16)      1  100.000(    34)      2   90.000(    51)      0
     18     18  Br      17   1.005801(    17)      7  160.000(    35)      1    0.000(    52)      0
     19     19  H        7   2.300022(    18)      1  100.000(    36)      2  -90.000(    53)      0
     20     20  Br      19   1.005801(    19)      7  160.000(    37)      1    0.000(    54)      0
 ---------------------------------------------------------------------------------------------------
                         Z-Matrix orientation:                         
 ---------------------------------------------------------------------
 Center     Atomic      Atomic             Coordinates (Angstroms)
 Number     Number       Type             X           Y           Z
 ---------------------------------------------------------------------
      1          6           0        0.000000    0.000000    0.000000
      2          6           0        0.000000    0.000000    1.311348
      3          6           0        1.141192    0.000000    1.970216
      4          6           0        2.286009    0.000000    1.309255
      5          6           0        2.286009    0.000000   -0.011979
      6          6           0        1.146006    0.000000   -0.670160
      7          9           0       -1.208813   -0.000000   -0.697908
      8          1           0       -0.876752   -0.000000    1.817541
      9          1           0        1.141192   -0.000000    2.982429
     10          1           0        3.162674   -0.000000    1.815398
     11          1           0        3.162612   -0.000000   -0.518086
     12          1           0        1.140383   -0.000000   -1.682530
     13          8           0       -3.631449   -0.000000   -2.102262
     14          6           0       -4.670852   -0.000000   -2.706401
     15          1           0       -5.109545    0.878175   -2.960590
     16          1           0       -5.109545   -0.878175   -2.960590
     17          1           0       -1.554699    2.265080   -0.897606
     18         35           0       -1.403443    3.255601   -0.810278
     19          1           0       -1.554699   -2.265080   -0.897606
     20         35           0       -1.403443   -3.255601   -0.810278
 ---------------------------------------------------------------------
                    Distance matrix (angstroms):
                    1          2          3          4          5
     1  C    0.000000
     2  C    1.311348   0.000000
     3  C    2.276855   1.317735   0.000000
     4  C    2.634386   2.286010   1.321921   0.000000
     5  C    2.286041   2.641407   2.289039   1.321234   0.000000
     6  C    1.327571   2.289040   2.640380   2.284227   1.316363
     7  F    1.395817   2.344854   3.555476   4.030197   3.561500
     8  H    2.017957   1.012386   2.023711   3.203344   3.653793
     9  H    3.193306   2.023569   1.012214   2.027342   3.205790
    10  H    3.646667   3.202589   2.027402   1.012286   2.026783
    11  H    3.204766   3.653620   3.205898   2.026723   1.012214
    12  H    2.032580   3.203714   3.652746   3.203629   2.025636
    13  O    4.196061   4.983990   6.274008   6.830429   6.275795
    14  C    5.398283   6.161101   7.459933   8.032647   7.460418
    15  H    5.970237   6.717745   8.009729   8.584695   8.009976
    16  H    5.970237   6.717745   8.009729   8.584695   8.009976
    17  H    2.890220   3.525217   4.541235   4.975125   4.545983
    18  Br   3.636639   4.131572   4.980487   5.357557   4.984804
    19  H    2.890220   3.525217   4.541235   4.975125   4.545983
    20  Br   3.636639   4.131572   4.980487   5.357557   4.984804
                    6          7          8          9         10
     6  C    0.000000
     7  F    2.354982   0.000000
     8  H    3.206276   2.537272   0.000000
     9  H    3.652593   4.366625   2.330035   0.000000
    10  H    3.200774   5.042481   4.039427   2.334170   0.000000
    11  H    2.022332   4.375122   4.666006   4.042245   2.333484
    12  H    1.012386   2.547195   4.039719   4.664960   4.040441
    13  O    4.987483   2.800245   4.790951   6.973678   7.842715
    14  C    6.162963   4.002469   5.904341   8.132813   9.044933
    15  H    6.719314   4.594195   6.443467   8.669624   9.592230
    16  H    6.719314   4.594195   6.443467   8.669624   9.592230
    17  H    3.532156   2.300022   3.600309   5.239570   5.894454
    18  Br   4.137422   3.263349   4.216844   5.608809   6.192135
    19  H    3.532156   2.300022   3.600309   5.239570   5.894454
    20  Br   4.137422   3.263349   4.216844   5.608809   6.192135
                   11         12         13         14         15
    11  H    0.000000
    12  H    2.333525   0.000000
    13  O    6.976309   4.790257   0.000000
    14  C    8.133381   5.900743   1.202224   0.000000
    15  H    8.669810   6.439428   1.921636   1.014029   0.000000
    16  H    8.669810   6.439428   1.921636   1.014029   1.756349
    17  H    5.246679   3.606960   3.300708   4.255906   4.337781
    18  Br   5.615440   4.222655   4.151165   4.987001   4.900122
    19  H    5.246679   3.606960   3.300708   4.255906   5.174252
    20  Br   5.615440   4.222655   4.151165   4.987001   5.953750
                   16         17         18         19         20
    16  H    0.000000
    17  H    5.174252   0.000000
    18  Br   5.953750   1.005801   0.000000
    19  H    4.337781   4.530160   5.523443   0.000000
    20  Br   4.900122   5.523443   6.511202   1.005801   0.000000
 Stoichiometry    C7H9Br2FO
 Framework group  CS[SG(C7H5FO),X(H4Br2)]
 Deg. of freedom    34
 Full point group                 CS      NOp   2
 Largest Abelian subgroup         CS      NOp   2
 Largest concise Abelian subgroup CS      NOp   2
                         Standard orientation:                         
 ---------------------------------------------------------------------
 Center     Atomic      Atomic             Coordinates (Angstroms)
 Number     Number       Type             X           Y           Z
 ---------------------------------------------------------------------
      1          6           0       -0.003022   -1.094862   -0.000000
      2          6           0       -1.138683   -1.750536   -0.000000
      3          6           0       -1.138683   -3.068272   -0.000000
      4          6           0        0.006134   -3.729232   -0.000000
      5          6           0        1.150356   -3.068615   -0.000000
      6          6           0        1.150356   -1.752252   -0.000000
      7          9           0       -0.003022    0.300955    0.000000
      8          1           0       -2.015435   -1.244343   -0.000000
      9          1           0       -2.015286   -3.574379   -0.000000
     10          1           0        0.006134   -4.741518   -0.000000
     11          1           0        2.026959   -3.574722   -0.000000
     12          1           0        2.024283   -1.241198   -0.000000
     13          8           0        0.001865    3.101196    0.000000
     14          6           0        0.005364    4.303415    0.000000
     15          1           0        0.006151    4.810429    0.878175
     16          1           0        0.006151    4.810429   -0.878175
     17          1           0       -0.003022    0.700349    2.265080
     18         35           0       -0.003022    0.525694    3.255601
     19          1           0       -0.003022    0.700349   -2.265080
     20         35           0       -0.003022    0.525694   -3.255601
 ---------------------------------------------------------------------
 Rotational constants (GHZ):           0.4678729           0.2864742           0.1881795
 Standard basis: 6-311++G(d,p) (5D, 7F)
 There are   248 symmetry adapted cartesian basis functions of A'  symmetry.
 There are   124 symmetry adapted cartesian basis functions of A"  symmetry.
 There are   236 symmetry adapted basis functions of A'  symmetry.
 There are   121 symmetry adapted basis functions of A"  symmetry.
   357 basis functions,   593 primitive gaussians,   372 cartesian basis functions
    69 alpha electrons       69 beta electrons
       nuclear repulsion energy      1123.1128082275 Hartrees.
 NAtoms=   20 NActive=   20 NUniq=   17 SFac= 1.38D+00 NAtFMM=   60 NAOKFM=F Big=F
 Integral buffers will be    131072 words long.
 Raffenetti 2 integral format.
 Two-electron integral symmetry is turned on.
 ------------------------------------------------------------------------------
 Polarizable Continuum Model (PCM)
 =================================
 Model                : PCM.
 Atomic radii         : UFF (Universal Force Field).
 Polarization charges : Total charges.
 Charge compensation  : None.
 Solution method      : On-the-fly selection.
 Cavity type          : Scaled VdW (van der Waals Surface) (Alpha=1.100).
 Cavity algorithm     : GePol (No added spheres)
                        Default sphere list used, NSphG=   20.
                        Lebedev-Laikov grids with approx.  5.0 points / Ang**2.
                        Smoothing algorithm: York/Karplus (Gamma=1.0000).
                        Polarization charges: spherical gaussians, with
                                              point-specific exponents (IZeta= 3).
                        Self-potential: point-specific (ISelfS= 7).
                        Self-field    : sphere-specific E.n sum rule (ISelfD= 2).
 1st derivatives      : Analytical E(r).r(x)/FMM algorithm (CHGder, D1EAlg=3).
                        Cavity 1st derivative terms included.
 Solvent              : Chloroform, Eps=   4.711300 Eps(inf)=   2.090627
 ------------------------------------------------------------------------------
 Spheres list:
 ISph  on   Nord     Re0    Alpha      Xe            Ye            Ze
    1   C      1    1.9255  1.100     -0.003022     -1.094862     -0.000000
    2   C      2    1.9255  1.100     -1.138683     -1.750536     -0.000000
    3   C      3    1.9255  1.100     -1.138683     -3.068272     -0.000000
    4   C      4    1.9255  1.100      0.006134     -3.729232     -0.000000
    5   C      5    1.9255  1.100      1.150356     -3.068615     -0.000000
    6   C      6    1.9255  1.100      1.150356     -1.752252     -0.000000
    7   F      7    1.6820  1.100     -0.003022      0.300955      0.000000
    8   H      8    1.4430  1.100     -2.015435     -1.244343     -0.000000
    9   H      9    1.4430  1.100     -2.015286     -3.574379     -0.000000
   10   H     10    1.4430  1.100      0.006134     -4.741518     -0.000000
   11   H     11    1.4430  1.100      2.026959     -3.574722     -0.000000
   12   H     12    1.4430  1.100      2.024283     -1.241198     -0.000000
   13   O     13    1.7500  1.100      0.001865      3.101196      0.000000
   14   C     14    1.9255  1.100      0.005364      4.303415      0.000000
   15   H     15    1.4430  1.100      0.006151      4.810429      0.878175
   16   H     16    1.4430  1.100      0.006151      4.810429     -0.878175
   17   H     17    1.4430  1.100     -0.003022      0.700349      2.265080
   18  Br     18    2.0945  1.100     -0.003022      0.525694      3.255601
   19   H     19    1.4430  1.100     -0.003022      0.700349     -2.265080
   20  Br     20    2.0945  1.100     -0.003022      0.525694     -3.255601
 ------------------------------------------------------------------------------
 One-electron integrals computed using PRISM.
 NBasis=   357 RedAO= T EigKep=  4.20D-06  NBF=   236   121
 NBsUse=   356 1.00D-06 EigRej=  4.67D-07 NBFU=   235   121
 Initial guess from the checkpoint file:  "model_H2b.chk"
 B after Tr=    -0.000000    0.000000    0.000000
         Rot=    1.000000   -0.000000   -0.000000   -0.000704 Ang=  -0.08 deg.
 Initial guess orbital symmetries:
       Occupied  (A") (A') (A") (A') (A") (A') (A') (A") (A') (A")
                 (A') (A') (A') (A') (A') (A') (A') (A') (A') (A")
                 (A') (A") (A') (A') (A") (A') (A") (A") (A') (A')
                 (A') (A") (A") (A') (A") (A') (A") (A') (A') (A')
                 (A") (A') (A') (A') (A') (A') (A') (A') (A") (A')
                 (A') (A") (A') (A') (A") (A') (A') (A') (A") (A')
                 (A') (A') (A") (A") (A') (A') (A") (A") (A")
       Virtual   (A') (A') (A') (A') (A") (A') (A") (A") (A') (A')
                 (A") (A') (A") (A") (A') (A') (A') (A") (A') (A')
                 (A") (A") (A') (A') (A') (A") (A') (A') (A') (A')
                 (A') (A") (A') (A") (A') (A") (A') (A") (A') (A')
                 (A') (A") (A') (A') (A') (A") (A') (A') (A') (A")
                 (A') (A') (A") (A') (A") (A') (A') (A') (A') (A')
                 (A') (A') (A") (A') (A') (A') (A") (A') (A') (A")
                 (A') (A') (A') (A') (A") (A') (A') (A") (A') (A')
                 (A') (A") (A') (A") (A') (A') (A") (A') (A") (A')
                 (A") (A') (A") (A') (A") (A') (A') (A") (A') (A")
                 (A") (A') (A') (A') (A") (A') (A') (A') (A") (A')
                 (A') (A') (A') (A') (A') (A') (A") (A') (A') (A')
                 (A') (A") (A') (A') (A") (A") (A') (A') (A") (A")
                 (A') (A') (A") (A") (A") (A") (A') (A') (A') (A')
                 (A') (A") (A') (A') (A") (A') (A') (A') (A") (A')
                 (A") (A") (A") (A') (A') (A") (A') (A") (A') (A')
                 (A") (A') (A') (A') (A") (A') (A') (A') (A") (A')
                 (A") (A') (A") (A") (A') (A") (A') (A") (A') (A')
                 (A") (A') (A') (A') (A") (A') (A') (A") (A') (A")
                 (A') (A") (A') (A') (A") (A') (A') (A') (A') (A")
                 (A') (A') (A') (A') (A") (A') (A') (A') (A") (A")
                 (A') (A") (A') (A") (A") (A") (A') (A') (A') (A")
                 (A') (A') (A') (A') (A') (A") (A') (A') (A') (A')
                 (A') (A") (A') (A") (A") (A') (A') (A') (A') (A")
                 (A') (A') (A') (A") (A") (A') (A') (A") (A') (A')
                 (A") (A') (A') (A') (A') (A") (A') (A") (A') (A')
                 (A') (A") (A") (A') (A") (A') (A') (A") (A') (A')
                 (A') (A') (A') (A') (A') (A') (A") (A') (A') (A")
                 (A') (A") (A') (A') (A") (A') (A")
 ExpMin= 3.50D-02 ExpMax= 4.40D+05 ExpMxC= 1.51D+04 IAcc=3 IRadAn=         5 AccDes= 0.00D+00
 Harris functional with IExCor= 1009 and IRadAn=       5 diagonalized for initial guess.
 HarFok:  IExCor= 1009 AccDes= 0.00D+00 IRadAn=         5 IDoV= 1 UseB2=F ITyADJ=14
 ICtDFT=  3500011 ScaDFX=  1.000000  1.000000  1.000000  1.000000
 FoFCou: FMM=F IPFlag=           0 FMFlag=      100000 FMFlg1=           0
         NFxFlg=           0 DoJE=T BraDBF=F KetDBF=T FulRan=T
         wScrn=  0.000000 ICntrl=       500 IOpCl=  0 I1Cent=   200000004 NGrid=           0
         NMat0=    1 NMatS0=      1 NMatT0=    0 NMatD0=    1 NMtDS0=    0 NMtDT0=    0
 Petite list used in FoFCou.
 Requested convergence on RMS density matrix=1.00D-08 within 128 cycles.
 Requested convergence on MAX density matrix=1.00D-06.
 Requested convergence on             energy=1.00D-06.
 No special actions if energy rises.
 Inv3:  Mode=1 IEnd=    15431472.
 Iteration    1 A*A^-1 deviation from unit magnitude is 8.22D-15 for   2255.
 Iteration    1 A*A^-1 deviation from orthogonality  is 2.01D-15 for   2264   2108.
 Iteration    1 A^-1*A deviation from unit magnitude is 8.22D-15 for   2255.
 Iteration    1 A^-1*A deviation from orthogonality  is 1.78D-15 for   1315    491.
 Error on total polarization charges =  0.01413
 SCF Done:  E(RM062X) =  -5595.04923657     A.U. after   14 cycles
            NFock= 14  Conv=0.15D-08     -V/T= 2.0006
 D1PCM: PCM CHGder 1st derivatives, ID1Alg=3 FixD1E=F DoIter=F DoCFld=F I1PDM=0.
 Calling FoFJK, ICntrl=      2127 FMM=F ISym2X=1 I1Cent= 0 IOpClX= 0 NMat=1 NMatS=1 NMatT=0.
 ***** Axes restored to original set *****
 -------------------------------------------------------------------
 Center     Atomic                   Forces (Hartrees/Bohr)
 Number     Number              X              Y              Z
 -------------------------------------------------------------------
      1        6          -0.057843982   -0.000000000   -0.051581816
      2        6          -0.040420077   -0.000000000    0.014771670
      3        6           0.009084211   -0.000000000    0.020985912
      4        6           0.021689892    0.000000000    0.015443188
      5        6           0.021724157   -0.000000000   -0.006043700
      6        6          -0.022036697   -0.000000000   -0.033145518
      7        9           0.022679835    0.000000000    0.013117722
      8        1          -0.054137789   -0.000000000    0.029296086
      9        1          -0.001407786   -0.000000000    0.060631682
     10        1           0.052758896   -0.000000000    0.030529283
     11        1           0.051862640    0.000000000   -0.031596482
     12        1          -0.002097825    0.000000000   -0.061324441
     13        8           0.010090475    0.000000000    0.005800159
     14        6           0.054772615    0.000000000    0.031946441
     15        1          -0.032921208    0.058746313   -0.019156645
     16        1          -0.032921208   -0.058746313   -0.019156645
     17        1          -0.102555388   -0.665283216   -0.059215517
     18       35           0.102117313    0.664777030    0.058957069
     19        1          -0.102555388    0.665283216   -0.059215517
     20       35           0.102117313   -0.664777030    0.058957069
 -------------------------------------------------------------------
 Cartesian Forces:  Max     0.665283216 RMS     0.176511662
 -----------------------------------------------------------------------------------------------
                       Internal Coordinate Forces (Hartree/Bohr or radian)
  Cent   Atom   N1       Length/X         N2         Alpha/Y        N3         Beta/Z          J
 -----------------------------------------------------------------------------------------------
      1  C 
      2  C        1   0.038391(     1)
      3  C        2   0.110525(     2)      1   0.090082(    20)
      4  C        3   0.150363(     3)      2   0.262058(    21)      1  -0.000000(    38)     0
      5  C        4   0.133267(     4)      3   0.294306(    22)      2  -0.000000(    39)     0
      6  C        5   0.069300(     5)      4   0.172409(    23)      3  -0.000000(    40)     0
      7  F        1  -0.024051(     6)      2  -0.000021(    24)      3   0.000000(    41)     0
      8  H        2   0.061533(     7)      3   0.003248(    25)      4   0.000000(    42)     0
      9  H        3   0.060632(     8)      4   0.002693(    26)      5  -0.000000(    43)     0
     10  H        4   0.060955(     9)      5   0.000114(    27)      6  -0.000000(    44)     0
     11  H        5   0.060713(    10)      6  -0.002739(    28)      1   0.000000(    45)     0
     12  H        6   0.061335(    11)      1  -0.003362(    29)      2   0.000000(    46)     0
     13  O        7   0.001131(    12)      1   0.000003(    30)      3   0.000000(    47)     0
     14  C       13   0.012770(    13)      1   0.000102(    31)      2   0.000000(    48)     0
     15  H       14   0.069920(    14)      1   0.006923(    32)      2   0.000117(    49)     0
     16  H       14   0.069920(    15)      1   0.006923(    33)      2  -0.000117(    50)     0
     17  H        7  -0.000410(    16)      1   0.001255(    34)      2   0.000021(    51)     0
     18  Br      17   0.675153(    17)      7  -0.001304(    35)      1   0.000000(    52)     0
     19  H        7  -0.000410(    18)      1   0.001255(    36)      2  -0.000021(    53)     0
     20  Br      19   0.675153(    19)      7  -0.001304(    37)      1  -0.000000(    54)     0
 -----------------------------------------------------------------------------------------------
 Internal  Forces:  Max     0.675153249 RMS     0.148632112

 GradGradGradGradGradGradGradGradGradGradGradGradGradGradGradGradGradGrad
 Berny optimization.
 Search for a local minimum.
 Step number   2 out of a maximum of   29
 All quantities printed in internal units (Hartrees-Bohrs-Radians)
 Update second derivatives using D2CorN and points    1    2
 DE= -3.98D-01 DEPred=-4.37D-01 R= 9.09D-01
 TightC=F SS=  1.41D+00  RLast= 3.00D-01 DXNew= 5.0454D-01 9.0000D-01
 Trust test= 9.09D-01 RLast= 3.00D-01 DXMaxT set to 5.05D-01
 The second derivative matrix:
                          d1        d2        d3        d4        d5
           d1           0.95388
           d2          -0.05367   0.95469
           d3          -0.33409   0.33861   1.34783
           d4          -0.27964   0.05685   0.33906   0.95527
           d5           0.05606  -0.27946  -0.33346  -0.05303   0.95454
           d6           0.00016   0.00031   0.00025   0.00038   0.00027
           d7           0.00074   0.00099   0.00162   0.00114   0.00095
           d8           0.00073   0.00098   0.00160   0.00113   0.00094
           d9           0.00074   0.00100   0.00162   0.00115   0.00096
           d10          0.00072   0.00097   0.00159   0.00112   0.00093
           d11          0.00076   0.00103   0.00166   0.00118   0.00098
           d12         -0.00000  -0.00001   0.00000  -0.00001  -0.00000
           d13          0.00023   0.00034   0.00049   0.00040   0.00032
           d14          0.00081   0.00108   0.00178   0.00124   0.00104
           d15          0.00081   0.00108   0.00178   0.00124   0.00104
           d16          0.00006   0.00010   0.00012   0.00011   0.00009
           d17          0.02228   0.03343   0.04468   0.03964   0.03116
           d18          0.00006   0.00010   0.00012   0.00011   0.00009
           d19          0.02228   0.03343   0.04468   0.03964   0.03116
                          d6        d7        d8        d9        d10
           d6           0.45597
           d7           0.00026   0.47744
           d8           0.00025   0.00056   0.47744
           d9           0.00025   0.00056   0.00056   0.47745
           d10          0.00026   0.00055   0.00054   0.00055   0.47742
           d11          0.00025   0.00058   0.00058   0.00059   0.00057
           d12          0.00001  -0.00001  -0.00001  -0.00001  -0.00001
           d13          0.00001   0.00021   0.00021   0.00021   0.00021
           d14          0.00030   0.00060   0.00060   0.00061   0.00059
           d15          0.00030   0.00060   0.00060   0.00061   0.00059
           d16         -0.00002   0.00007   0.00007   0.00007   0.00007
           d17         -0.00368   0.02222   0.02196   0.02213   0.02187
           d18         -0.00002   0.00007   0.00007   0.00007   0.00007
           d19         -0.00368   0.02222   0.02196   0.02213   0.02187
                          d11       d12       d13       d14       d15
           d11          0.47749
           d12         -0.00001   0.02330
           d13          0.00022   0.00000   1.04829
           d14          0.00063  -0.00001   0.00023   0.47753
           d15          0.00063  -0.00001   0.00023   0.00065   0.47753
           d16          0.00007   0.00000   0.00001   0.00007   0.00007
           d17          0.02244   0.00029   0.00494   0.02492   0.02492
           d18          0.00007   0.00000   0.00001   0.00007   0.00007
           d19          0.02244   0.00029   0.00494   0.02492   0.02492
                          d16       d17       d18       d19
           d16          0.02721
           d17          0.00060   2.13594
           d18          0.00000   0.00060   0.02721
           d19          0.00060   0.33882   0.00060   2.13594
 ITU=  1  0
 Linear search step of   0.600 exceeds DXMaxT=   0.505 but not scaled.
 Quartic linear search produced a step of  2.00000.
 Variable       Old X    -DE/DX   Delta X   Delta X   Delta X     New X
                                 (Linear)    (Quad)   (Total)
    d1        2.47809   0.03839   0.04289   0.00000   0.04289   2.52098
    d2        2.49016   0.11053   0.06703   0.00000   0.06703   2.55719
    d3        2.49807   0.15036   0.08285   0.00000   0.08285   2.58092
    d4        2.49677   0.13327   0.08025   0.00000   0.08025   2.57703
    d5        2.48757   0.06930   0.06184   0.00000   0.06184   2.54941
    d6        2.63771  -0.02405  -0.01581   0.00000  -0.01581   2.62190
    d7        1.91313   0.06153   0.04681   0.00000   0.04681   1.95994
    d8        1.91281   0.06063   0.04616   0.00000   0.04616   1.95897
    d9        1.91294   0.06096   0.04643   0.00000   0.04643   1.95938
   d10        1.91281   0.06071   0.04616   0.00000   0.04616   1.95897
   d11        1.91313   0.06134   0.04681   0.00000   0.04681   1.95994
   d12        5.29170   0.00113   0.00093   0.00000   0.00093   5.29262
   d13        2.27187   0.01277   0.00841   0.00000   0.00841   2.28028
   d14        1.91624   0.06992   0.05302   0.00000   0.05302   1.96926
   d15        1.91624   0.06992   0.05302   0.00000   0.05302   1.96926
   d16        4.34641  -0.00041   0.00008   0.00000   0.00008   4.34650
   d17        1.90069   0.67515   0.39987   0.00000   0.39987   2.30056
   d18        4.34641  -0.00041   0.00008   0.00000   0.00008   4.34650
   d19        1.90069   0.67515   0.39987   0.00000   0.39987   2.30056
         Item               Value     Threshold  Converged?
 Maximum Force            0.675153     0.000450     NO 
 RMS     Force            0.229378     0.000300     NO 
 Maximum Displacement     0.399871     0.001800     NO 
[...]
 Stoichiometry    C7H9Br2FO
 Framework group  CS[SG(C7H5FO),X(H4Br2)]
 Deg. of freedom    34
 Full point group                 CS      NOp   2
 Largest Abelian subgroup         CS      NOp   2
 Largest concise Abelian subgroup CS      NOp   2
                         Standard orientation:                         
 ---------------------------------------------------------------------
 Center     Atomic      Atomic             Coordinates (Angstroms)
 Number     Number       Type             X           Y           Z
 ---------------------------------------------------------------------
      1          6           0       -0.003470   -0.998528    0.000000
      2          6           0       -1.196769   -1.687479    0.000000
      3          6           0       -1.196769   -3.070522    0.000000
      4          6           0        0.004512   -3.764081    0.000000
      5          6           0        1.213135   -3.066283    0.000000
      6          6           0        1.213135   -1.667410    0.000000
      7          9           0       -0.003470    0.359807   -0.000000
      8          1           0       -2.135620   -1.145433    0.000000
      9          1           0       -2.134395   -3.611861    0.000000
     10          1           0        0.004512   -4.847130    0.000000
     11          1           0        2.150694   -3.607583    0.000000
     12          1           0        2.139798   -1.106241    0.000000
     13          8           0        0.001474    3.192584   -0.000000
     14          6           0        0.004993    4.395849   -0.000000
     15          1           0        0.005858    4.946612    0.953951
     16          1           0        0.005858    4.946612   -0.953951
     17          1           0       -0.003470    0.723979    2.065326
     18         35           0       -0.003470    0.476412    3.469349
     19          1           0       -0.003470    0.723979   -2.065326
     20         35           0       -0.003470    0.476412   -3.469349
 ---------------------------------------------------------------------
 Rotational constants (GHZ):           0.4597586           0.2528948           0.1729991

 **********************************************************************

            Population analysis using the SCF Density.

 **********************************************************************

 Orbital symmetries:
       Occupied  (A") (A') (A") (A') (A") (A') (A') (A") (A') (A")
                 (A') (A') (A') (A') (A') (A') (A') (A') (A') (A")
                 (A') (A") (A') (A") (A') (A") (A') (A") (A') (A')
                 (A") (A') (A") (A') (A") (A') (A") (A') (A') (A')
                 (A") (A') (A') (A') (A') (A') (A') (A') (A") (A')
                 (A") (A') (A') (A') (A') (A') (A') (A") (A') (A")
                 (A') (A') (A") (A") (A') (A') (A") (A") (A")
       Virtual   (A') (A') (A") (A') (A") (A') (A') (A") (A') (A')
                 (A") (A') (A") (A") (A') (A') (A') (A') (A") (A')
                 (A") (A') (A") (A") (A') (A') (A') (A") (A') (A')
                 (A') (A') (A") (A') (A") (A') (A") (A') (A') (A')
                 (A') (A") (A') (A') (A") (A') (A') (A") (A') (A')
                 (A') (A') (A") (A') (A') (A') (A') (A') (A") (A')
                 (A') (A') (A') (A') (A") (A') (A') (A') (A') (A')
                 (A") (A") (A') (A') (A") (A') (A') (A") (A') (A')
                 (A') (A') (A') (A") (A') (A') (A') (A") (A') (A")
                 (A") (A") (A') (A') (A") (A") (A') (A") (A') (A")
                 (A") (A') (A") (A') (A') (A') (A') (A') (A') (A")
                 (A') (A") (A') (A') (A') (A') (A') (A') (A') (A')
                 (A') (A") (A') (A') (A") (A') (A") (A') (A') (A")
                 (A") (A') (A") (A") (A") (A') (A") (A') (A') (A')
                 (A") (A") (A') (A") (A') (A') (A') (A") (A') (A')
                 (A") (A') (A") (A') (A') (A") (A') (A') (A') (A")
                 (A") (A') (A') (A') (A") (A') (A') (A") (A') (A")
                 (A") (A') (A') (A') (A") (A") (A') (A') (A') (A")
                 (A') (A') (A") (A") (A') (A') (A") (A') (A') (A')
                 (A") (A") (A') (A") (A') (A') (A") (A') (A') (A')
                 (A") (A') (A') (A') (A') (A') (A') (A') (A") (A')
                 (A') (A") (A') (A") (A') (A") (A") (A") (A') (A')
                 (A") (A') (A') (A') (A') (A') (A') (A') (A') (A")
                 (A') (A") (A') (A") (A') (A') (A') (A") (A') (A')
                 (A') (A') (A") (A") (A') (A') (A") (A') (A") (A')
                 (A') (A") (A') (A') (A') (A") (A') (A") (A') (A')
                 (A") (A') (A") (A') (A") (A') (A') (A") (A') (A')
                 (A') (A') (A') (A') (A') (A') (A") (A') (A') (A")
                 (A') (A") (A') (A') (A") (A') (A")
 The electronic state is 1-A'.
 Alpha  occ. eigenvalues -- -485.33779-485.33779 -63.33005 -63.33005 -57.15729
 Alpha  occ. eigenvalues --  -57.15729 -57.15504 -57.15504 -57.15504 -57.15504
 Alpha  occ. eigenvalues --  -25.27778 -19.64550 -10.64166 -10.63925 -10.56245
 Alpha  occ. eigenvalues --  -10.56153 -10.55982 -10.55890 -10.55396  -9.01718
 Alpha  occ. eigenvalues --   -9.01718  -6.84459  -6.84459  -6.83523  -6.83523
 Alpha  occ. eigenvalues --   -6.83522  -6.83522  -2.87638  -2.87638  -2.87270
 Alpha  occ. eigenvalues --   -2.87270  -2.87270  -2.87269  -2.86458  -2.86458
 Alpha  occ. eigenvalues --   -2.86458  -2.86458  -1.39424  -1.19281  -0.98251
 Alpha  occ. eigenvalues --   -0.87725  -0.87684  -0.86557  -0.86116  -0.72444
 Alpha  occ. eigenvalues --   -0.72097  -0.71568  -0.64364  -0.60272  -0.58991
 Alpha  occ. eigenvalues --   -0.58378  -0.58351  -0.53840  -0.52578  -0.50886
 Alpha  occ. eigenvalues --   -0.49817  -0.49777  -0.48879  -0.47754  -0.45068
 Alpha  occ. eigenvalues --   -0.44099  -0.41927  -0.36351  -0.36331  -0.36313
 Alpha  occ. eigenvalues --   -0.36302  -0.34828  -0.32625  -0.31734
 Alpha virt. eigenvalues --   -0.00852  -0.00276   0.00236   0.00655   0.00928
 Alpha virt. eigenvalues --    0.01303   0.01807   0.01852   0.02767   0.03279
 Alpha virt. eigenvalues --    0.03482   0.04511   0.05286   0.05907   0.05967
 Alpha virt. eigenvalues --    0.06284   0.06937   0.07231   0.07501   0.08164
 Alpha virt. eigenvalues --    0.08774   0.08973   0.10699   0.10721   0.11224
 Alpha virt. eigenvalues --    0.11625   0.12472   0.12670   0.12956   0.13154
 Alpha virt. eigenvalues --    0.13574   0.13659   0.14171   0.14936   0.15133
 Alpha virt. eigenvalues --    0.15920   0.16263   0.16511   0.17001   0.17123
 Alpha virt. eigenvalues --    0.17618   0.17777   0.18294   0.19942   0.20118
 Alpha virt. eigenvalues --    0.20441   0.21211   0.22057   0.22283   0.23583
 Alpha virt. eigenvalues --    0.25283   0.25744   0.26126   0.27818   0.29720
 Alpha virt. eigenvalues --    0.30884   0.31178   0.31633   0.31842   0.32796
 Alpha virt. eigenvalues --    0.32954   0.36615   0.38020   0.38338   0.39001
 Alpha virt. eigenvalues --    0.40111   0.41971   0.42311   0.42631   0.43152
 Alpha virt. eigenvalues --    0.44386   0.46401   0.46691   0.47522   0.48554
 Alpha virt. eigenvalues --    0.48757   0.51670   0.51854   0.52808   0.53118
 Alpha virt. eigenvalues --    0.55297   0.56524   0.56939   0.57776   0.58469
 Alpha virt. eigenvalues --    0.59378   0.59474   0.59478   0.59884   0.60044
 Alpha virt. eigenvalues --    0.62098   0.62363   0.63154   0.63907   0.65199
 Alpha virt. eigenvalues --    0.66654   0.66963   0.68037   0.68419   0.69756
 Alpha virt. eigenvalues --    0.69797   0.70743   0.70836   0.71585   0.73641
 Alpha virt. eigenvalues --    0.74421   0.76600   0.76824   0.77671   0.79481
 Alpha virt. eigenvalues --    0.81366   0.82622   0.83446   0.84166   0.87915
 Alpha virt. eigenvalues --    0.88593   0.89124   0.91550   0.93855   0.96412
 Alpha virt. eigenvalues --    0.96530   0.96543   1.00201   1.03812   1.04358
 Alpha virt. eigenvalues --    1.05275   1.06422   1.06554   1.08020   1.08023
 Alpha virt. eigenvalues --    1.12090   1.16342   1.16730   1.18020   1.23296
 Alpha virt. eigenvalues --    1.24441   1.25987   1.31931   1.33943   1.41425
 Alpha virt. eigenvalues --    1.45070   1.45811   1.46956   1.48511   1.48701
 Alpha virt. eigenvalues --    1.49216   1.50078   1.54376   1.55307   1.55786
 Alpha virt. eigenvalues --    1.60020   1.60638   1.60861   1.61117   1.62767
 Alpha virt. eigenvalues --    1.68018   1.68273   1.68718   1.70379   1.71708
 Alpha virt. eigenvalues --    1.77210   1.77439   1.78027   1.78703   1.79783
 Alpha virt. eigenvalues --    1.86210   1.87480   1.89954   1.91989   1.94508
 Alpha virt. eigenvalues --    1.95071   1.96360   1.97164   1.99051   2.00333
 Alpha virt. eigenvalues --    2.02061   2.03900   2.04179   2.05921   2.06170
 Alpha virt. eigenvalues --    2.06961   2.07198   2.09766   2.10095   2.10114
 Alpha virt. eigenvalues --    2.12267   2.14370   2.17414   2.24675   2.30329
 Alpha virt. eigenvalues --    2.30763   2.35177   2.43961   2.45067   2.47940
 Alpha virt. eigenvalues --    2.48550   2.51970   2.52787   2.53394   2.62387
 Alpha virt. eigenvalues --    2.62488   2.65513   2.66781   2.70018   2.72555
 Alpha virt. eigenvalues --    2.73109   2.74715   2.75064   2.76097   2.77672
 Alpha virt. eigenvalues --    2.78902   2.84705   2.85509   2.86426   2.89159
 Alpha virt. eigenvalues --    2.94420   2.94463   2.94506   2.98110   2.99419
 Alpha virt. eigenvalues --    3.14279   3.18663   3.26510   3.39021   3.39360
 Alpha virt. eigenvalues --    3.43296   3.48728   3.53047   3.56440   3.56928
 Alpha virt. eigenvalues --    3.66822   3.74518   3.79097   3.85920   3.93870
 Alpha virt. eigenvalues --    4.02790   4.05006   4.05527   4.09005   4.16033
 Alpha virt. eigenvalues --    4.19353   4.21146   4.28125   4.28408   4.28983
 Alpha virt. eigenvalues --    4.29181   4.32505   4.34579   4.35405   4.36298
 Alpha virt. eigenvalues --    4.50942   4.54062   4.85661   4.94363   5.10868
 Alpha virt. eigenvalues --    5.22550   5.80269   6.57373   6.59240   6.83795
 Alpha virt. eigenvalues --    6.86412   6.91210   7.62321   7.64037   7.65298
 Alpha virt. eigenvalues --    7.66013   7.67081   7.68454  23.69128  23.99960
 Alpha virt. eigenvalues --   24.01931  24.05138  24.15607  24.16924  24.27354
 Alpha virt. eigenvalues --   48.36516  48.38686  50.05401  66.95501 290.76979
 Alpha virt. eigenvalues --  290.78848 290.80273 290.81109 290.84129 290.85529
 Alpha virt. eigenvalues -- 1020.922801020.95125
          Condensed to atoms (all electrons):
               1          2          3          4          5          6
     1  C   10.489396  -1.018554  -1.494474  -0.067894  -1.272417  -0.633261
     2  C   -1.018554  10.683538   1.546943  -0.617505  -0.350258  -4.446157
     3  C   -1.494474   1.546943   6.166206   0.438568  -0.202963  -0.542201
     4  C   -0.067894  -0.617505   0.438568   6.404729   0.400163  -0.493247
     5  C   -1.272417  -0.350258  -0.202963   0.400163   6.010940   1.334204
     6  C   -0.633261  -4.446157  -0.542201  -0.493247   1.334204  10.584918
     7  F    0.537675  -0.245370  -0.047919   0.015941  -0.042914  -0.239011
     8  H   -0.067223   0.460993  -0.056126  -0.012554   0.010537  -0.016584
     9  H   -0.009846  -0.022731   0.393478  -0.089748   0.011010   0.029491
    10  H    0.038703  -0.015884  -0.072447   0.475962  -0.069746  -0.012537
    11  H   -0.006958   0.032768   0.010880  -0.090780   0.391187  -0.026164
    12  H   -0.066518  -0.017317   0.009156  -0.010757  -0.053887   0.457569
    13  O    0.057611  -0.019319  -0.001819   0.000034  -0.001495  -0.018393
    14  C    0.005427  -0.002193  -0.000455   0.000598  -0.000358  -0.001022
    15  H   -0.000814   0.000194   0.000043  -0.000037   0.000035   0.000139
    16  H   -0.000814   0.000194   0.000043  -0.000037   0.000035   0.000139
    17  H   -0.070539   0.022849   0.012627  -0.017169   0.010326   0.015028
    18  Br   0.170490  -0.044831  -0.034855   0.025768  -0.031712  -0.036940
    19  H   -0.070539   0.022849   0.012627  -0.017169   0.010326   0.015028
    20  Br   0.170490  -0.044831  -0.034855   0.025768  -0.031712  -0.036940
               7          8          9         10         11         12
     1  C    0.537675  -0.067223  -0.009846   0.038703  -0.006958  -0.066518
     2  C   -0.245370   0.460993  -0.022731  -0.015884   0.032768  -0.017317
     3  C   -0.047919  -0.056126   0.393478  -0.072447   0.010880   0.009156
     4  C    0.015941  -0.012554  -0.089748   0.475962  -0.090780  -0.010757
     5  C   -0.042914   0.010537   0.011010  -0.069746   0.391187  -0.053887
     6  C   -0.239011  -0.016584   0.029491  -0.012537  -0.026164   0.457569
     7  F    9.162710  -0.005596  -0.001848   0.001068  -0.001877  -0.005585
     8  H   -0.005596   0.458213  -0.002954   0.000422   0.001216   0.000388
     9  H   -0.001848  -0.002954   0.458450  -0.010463   0.002268   0.001182
    10  H    0.001068   0.000422  -0.010463   0.472150  -0.010182   0.000400
    11  H   -0.001877   0.001216   0.002268  -0.010182   0.457569  -0.002406
    12  H   -0.005585   0.000388   0.001182   0.000400  -0.002406   0.456817
    13  O    0.004913   0.001165  -0.000018   0.000014  -0.000018   0.001202
    14  C    0.001613  -0.000249  -0.000057   0.000017  -0.000058  -0.000254
    15  H   -0.000206  -0.000038   0.000004  -0.000001   0.000004  -0.000038
    16  H   -0.000206  -0.000038   0.000004  -0.000001   0.000004  -0.000038
    17  H   -0.034692   0.004153   0.002362  -0.001231   0.002390   0.004235
    18  Br   0.007144  -0.001997  -0.003033   0.001676  -0.003027  -0.002105
    19  H   -0.034692   0.004153   0.002362  -0.001231   0.002390   0.004235
    20  Br   0.007144  -0.001997  -0.003033   0.001676  -0.003027  -0.002105
              13         14         15         16         17         18
     1  C    0.057611   0.005427  -0.000814  -0.000814  -0.070539   0.170490
     2  C   -0.019319  -0.002193   0.000194   0.000194   0.022849  -0.044831
     3  C   -0.001819  -0.000455   0.000043   0.000043   0.012627  -0.034855
     4  C    0.000034   0.000598  -0.000037  -0.000037  -0.017169   0.025768
     5  C   -0.001495  -0.000358   0.000035   0.000035   0.010326  -0.031712
     6  C   -0.018393  -0.001022   0.000139   0.000139   0.015028  -0.036940
     7  F    0.004913   0.001613  -0.000206  -0.000206  -0.034692   0.007144
     8  H    0.001165  -0.000249  -0.000038  -0.000038   0.004153  -0.001997
     9  H   -0.000018  -0.000057   0.000004   0.000004   0.002362  -0.003033
    10  H    0.000014   0.000017  -0.000001  -0.000001  -0.001231   0.001676
    11  H   -0.000018  -0.000058   0.000004   0.000004   0.002390  -0.003027
    12  H    0.001202  -0.000254  -0.000038  -0.000038   0.004235  -0.002105
    13  O    8.190523   0.225537  -0.088494  -0.088494   0.010062  -0.005506
    14  C    0.225537   4.938635   0.402940   0.402940  -0.005855   0.002328
    15  H   -0.088494   0.402940   0.656275  -0.101917   0.000752   0.000424
    16  H   -0.088494   0.402940  -0.101917   0.656275   0.000547  -0.000195
    17  H    0.010062  -0.005855   0.000752   0.000547   0.637925   0.229316
    18  Br  -0.005506   0.002328   0.000424  -0.000195   0.229316  34.876203
    19  H    0.010062  -0.005855   0.000547   0.000752   0.007432  -0.006755
    20  Br  -0.005506   0.002328  -0.000195   0.000424  -0.006755   0.003424
              19         20
     1  C   -0.070539   0.170490
     2  C    0.022849  -0.044831
     3  C    0.012627  -0.034855
     4  C   -0.017169   0.025768
     5  C    0.010326  -0.031712
     6  C    0.015028  -0.036940
     7  F   -0.034692   0.007144
     8  H    0.004153  -0.001997
     9  H    0.002362  -0.003033
    10  H   -0.001231   0.001676
    11  H    0.002390  -0.003027
    12  H    0.004235  -0.002105
    13  O    0.010062  -0.005506
    14  C   -0.005855   0.002328
    15  H    0.000547  -0.000195
    16  H    0.000752   0.000424
    17  H    0.007432  -0.006755
    18  Br  -0.006755   0.003424
    19  H    0.637925   0.229316
    20  Br   0.229316  34.876203
 Mulliken charges:
               1
     1  C   -0.689941
     2  C    0.074621
     3  C   -0.102457
     4  C   -0.370632
     5  C   -0.121300
     6  C    0.065942
     7  F   -0.078292
     8  H    0.224117
     9  H    0.243121
    10  H    0.201636
    11  H    0.243821
    12  H    0.225825
    13  O   -0.272063
    14  C    0.033992
    15  H    0.130384
    16  H    0.130384
    17  H    0.176238
    18  Br  -0.145817
    19  H    0.176238
    20  Br  -0.145817
 Sum of Mulliken charges =  -0.00000
 Mulliken charges with hydrogens summed into heavy atoms:
               1
     1  C   -0.689941
     2  C    0.298738
     3  C    0.140664
     4  C   -0.168996
     5  C    0.122520
     6  C    0.291768
     7  F   -0.078292
    13  O   -0.272063
    14  C    0.294760
    18  Br   0.030421
    20  Br   0.030421
 Electronic spatial extent (au):  <R**2>=           5402.2991
 Charge=              0.0000 electrons
 Dipole moment (field-independent basis, Debye):
    X=             -0.0037    Y=              0.9438    Z=             -0.0000  Tot=              0.9438
 Quadrupole moment (field-independent basis, Debye-Ang):
   XX=            -85.2973   YY=            -60.2763   ZZ=           -106.0094
   XY=              0.1429   XZ=              0.0000   YZ=              0.0000
 Traceless Quadrupole moment (field-independent basis, Debye-Ang):
   XX=             -1.4363   YY=             23.5847   ZZ=            -22.1484
   XY=              0.1429   XZ=              0.0000   YZ=              0.0000
 Octapole moment (field-independent basis, Debye-Ang**2):
  XXX=             -0.2380  YYY=            131.8765  ZZZ=              0.0000  XYY=             -0.1734
  XXY=              2.1780  XXZ=             -0.0000  XZZ=             -0.1598  YZZ=             22.3502
  YYZ=              0.0000  XYZ=             -0.0000
 Hexadecapole moment (field-independent basis, Debye-Ang**3):
 XXXX=           -316.5733 YYYY=          -1827.6997 ZZZZ=          -2835.9465 XXXY=              1.0197
 XXXZ=              0.0000 YYYX=              2.2468 YYYZ=             -0.0000 ZZZX=             -0.0000
 ZZZY=             -0.0000 XXYY=           -465.5179 XXZZ=           -560.4898 YYZZ=           -966.4881
 XXYZ=             -0.0000 YYXZ=              0.0000 ZZXY=              0.5576
 N-N= 1.072004191560D+03 E-N=-1.549920361252D+04  KE= 5.587815366194D+03
 Symmetry A'   KE= 2.996657906962D+03
 Symmetry A"   KE= 2.591157459232D+03
 1\1\GINC-R820\POpt\RM062X\6-311++G(d,p)\C7H9Br2F1O1\ZJXU\27-Mar-2024\1
 \\# m062x 6-311++G(d,p) opt=z-matrix scrf=(solvent=chloroform)\\test\\
 0,1\C\C,1,d1\C,2,d2,1,120.\C,3,d3,2,120.,1,0.,0\C,4,d4,3,120.,2,0.,0\C
 ,5,d5,4,120.,3,0.,0\F,1,d6,2,120.,3,180.,0\H,2,d7,3,120.,4,180.,0\H,3,
 d8,4,120.,5,180.,0\H,4,d9,5,120.,6,180.,0\H,5,d10,6,120.,1,180.,0\H,6,
 d11,1,120.,2,180.,0\O,7,d12,1,179.9,3,180.,0\C,13,d13,1,179.9,2,180.,0
 \H,14,d14,1,120.,2,90.,0\H,14,d15,1,120.,2,-90.,0\H,7,d16,1,100.,2,90.
 ,0\Br,17,d17,7,160.,1,0.,0\H,7,d18,1,100.,2,-90.,0\Br,19,d19,7,160.,1,
 0.,0\\d1=1.37790252\d2=1.38304281\d3=1.38711927\d4=1.3955976\d5=1.3988
 7296\d6=1.3583346\d7=1.08409192\d8=1.08267769\d9=1.08304841\d10=1.0825
 9994\d11=1.08333561\d12=2.8327812\d13=1.20327083\d14=1.10152718\d15=1.
 10152718\d16=2.09718656\d17=1.42568319\d18=2.09718656\d19=1.42568319\\
 Version=ES64L-G16RevB.01\State=1-A'\HF=-5595.4792741\RMSD=1.881e-09\RM
 SF=3.871e-03\Dipole=-0.3222957,0.,-0.1843759\Quadrupole=12.7920305,-16
 .4667801,3.6747496,0.,8.1082358,0.\PG=CS [SG(C7H5F1O1),X(H4Br2)]\\@


 AN OPTIMIST IS A GUY
 THAT HAS NEVER HAD
 MUCH EXPERIENCE
   (CERTAIN MAXIMS OF ARCHY  -- DON MARQUIS)
 Job cpu time:       0 days  3 hours 42 minutes 59.7 seconds.
 Elapsed time:       0 days  1 hours 51 minutes 34.2 seconds.
 File lengths (MBytes):  RWF=    247 Int=      0 D2E=      0 Chk=     16 Scr=      1
 Normal termination of Gaussian 16 at Wed Mar 27 15:56:59 2024.
