 Entering Gaussian System, Link 0=g16
 Input=model_H3.gjf
 Output=model_H3.log
 Initial command:
 /home/zjxu/prog/g16/l1.exe "/home/zjxu/zjhan/5_model/HBr/chloroform/Gau-54717.inp" -scrdir="/home/zjxu/zjhan/5_model/HBr/chloroform/"
 Entering Link 1 = /home/zjxu/prog/g16/l1.exe PID=     54718.
  
 Copyright (c) 1988-2017, Gaussian, Inc.  All Rights Reserved.
  
 This is part of the Gaussian(R) 16 program.  It is based on
 the Gaussian(R) 09 system (copyright 2009, Gaussian, Inc.),
 the Gaussian(R) 03 system (copyright 2003, Gaussian, Inc.),
 the Gaussian(R) 98 system (copyright 1998, Gaussian, Inc.),
 the Gaussian(R) 94 system (copyright 1995, Gaussian, Inc.),
 the Gaussian 92(TM) system (copyright 1992, Gaussian, Inc.),
 the Gaussian 90(TM) system (copyright 1990, Gaussian, Inc.),
 the Gaussian 88(TM) system (copyright 1988, Gaussian, Inc.),
 the Gaussian 86(TM) system (copyright 1986, Carnegie Mellon
 University), and the Gaussian 82(TM) system (copyright 1983,
 Carnegie Mellon University). Gaussian is a federally registered
 trademark of Gaussian, Inc.
  
 This software contains proprietary and confidential information,
 including trade secrets, belonging to Gaussian, Inc.
  
 This software is provided under written license and may be
 used, copied, transmitted, or stored only in accord with that
 written license.
  
 The following legend is applicable only to US Government
 contracts under FAR:
  
                    RESTRICTED RIGHTS LEGEND
  
 Use, reproduction and disclosure by the US Government is
 subject to restrictions as set forth in subparagraphs (a)
 and (c) of the Commercial Computer Software - Restricted
 Rights clause in FAR 52.227-19.
  
 Gaussian, Inc.
 340 Quinnipiac St., Bldg. 40, Wallingford CT 06492
  
  
 ---------------------------------------------------------------
 Warning -- This program may not be used in any manner that
 competes with the business of Gaussian, Inc. or will provide
 assistance to any competitor of Gaussian, Inc.  The licensee
 of this program is prohibited from giving any competitor of
 Gaussian, Inc. access to this program.  By using this program,
 the user acknowledges that Gaussian, Inc. is engaged in the
 business of creating and licensing software in the field of
 computational chemistry and represents and warrants to the
 licensee that it is not a competitor of Gaussian, Inc. and that
 it will not use this program in any manner prohibited above.
 ---------------------------------------------------------------
  

 Cite this work as:
 Gaussian 16, Revision B.01,
 M. J. Frisch, G. W. Trucks, H. B. Schlegel, G. E. Scuseria, 
 M. A. Robb, J. R. Cheeseman, G. Scalmani, V. Barone, 
 G. A. Petersson, H. Nakatsuji, X. Li, M. Caricato, A. V. Marenich, 
 J. Bloino, B. G. Janesko, R. Gomperts, B. Mennucci, H. P. Hratchian, 
 J. V. Ortiz, A. F. Izmaylov, J. L. Sonnenberg, D. Williams-Young, 
 F. Ding, F. Lipparini, F. Egidi, J. Goings, B. Peng, A. Petrone, 
 T. Henderson, D. Ranasinghe, V. G. Zakrzewski, J. Gao, N. Rega, 
 G. Zheng, W. Liang, M. Hada, M. Ehara, K. Toyota, R. Fukuda, 
 J. Hasegawa, M. Ishida, T. Nakajima, Y. Honda, O. Kitao, H. Nakai, 
 T. Vreven, K. Throssell, J. A. Montgomery, Jr., J. E. Peralta, 
 F. Ogliaro, M. J. Bearpark, J. J. Heyd, E. N. Brothers, K. N. Kudin, 
 V. N. Staroverov, T. A. Keith, R. Kobayashi, J. Normand, 
 K. Raghavachari, A. P. Rendell, J. C. Burant, S. S. Iyengar, 
 J. Tomasi, M. Cossi, J. M. Millam, M. Klene, C. Adamo, R. Cammi, 
 J. W. Ochterski, R. L. Martin, K. Morokuma, O. Farkas, 
 J. B. Foresman, and D. J. Fox, Gaussian, Inc., Wallingford CT, 2016.
 
 ******************************************
 Gaussian 16:  ES64L-G16RevB.01 20-Dec-2017
                 1-Apr-2024 
 ******************************************
 %mem=4GB
 %nproc=4
 Will use up to    4 processors via shared memory.
 %chk=model_H3
 ----------------------------------------------------------------------
 # m062x 6-311++G(d,p) opt=(recalc=5,z-matrix) scrf=(solvent=chloroform
 )
 ----------------------------------------------------------------------
 1/10=7,18=40,26=3,38=1,71=5/1,3;
 2/12=2,17=6,18=5,29=3,40=1/2;
 3/5=4,6=6,7=1111,11=2,25=1,30=1,70=2201,71=2,72=7,74=-55,140=1/1,2,3;
 4//1;
 5/5=2,38=5,53=7/2;
 8/6=4,10=90,11=11/1;
 11/6=1,8=1,9=11,15=111,16=1/1,2,10;
 10/6=1/2;
 6/7=2,8=2,9=2,10=2,28=1/1;
 7/10=1,25=1/1,2,3,16;
 1/10=7,18=40,26=3,71=5/3(3);
 2/29=3/2;
 7/9=1,25=1,44=-1/16;
 99//99;
 2/29=3/2;
 3/5=4,6=6,7=1111,11=2,25=1,30=1,70=2205,71=2,72=7,74=-55,140=1/1,2,3;
 4/5=5,16=3,69=1/1;
 5/5=2,38=5,53=7/2;
 8/6=4,10=90,11=11/1;
 11/6=1,8=1,9=11,15=111,16=1/1,2,10;
 10/6=1/2;
 7/10=1,25=1/1,2,3,16;
 1/18=40,26=3,71=5/3(-8);
 2/29=3/2;
 6/7=2,8=2,9=2,10=2,19=2,28=1/1;
 7/9=1,25=1,44=-1/16;
 99/9=1/99;
 ----
 test
 ----
 Symbolic Z-matrix:
 Charge =  0 Multiplicity = 1
 C1
 C2                   1    d1
 C3                   2    d2       1     120. 
 C4                   3    d3       2     120.     1     0.       0
 C5                   4    d4       3     120.     2     0.       0
 C6                   5    d5       4     120.     3     0.       0
 F7                   1    d6       2     120.     3     180.     0
 H8                   2    d7       3     120.     4     180.     0
 H9                   3    d8       4     120.     5     180.     0
 H10                  4    d9       5     120.     6     180.     0
 H11                  5    d10      6     120.     1     180.     0
 H12                  6    d11      1     120.     2     180.     0
 O13                  7    d12      1     179.9    3     180.     0
 C14                  13   d13      1     179.9    2     180.     0
 H15                  14   d14      1     120.     2     90.      0
 H16                  14   d15      1     120.     2    -90.      0
 H17                  7    d16      1     100.     2     90.      0
 Br18                 17   d17      7     160.     1     0.       0
 H19                  7    d18      1     100.     2    -30.      0
 Br20                 19   d19      7     160.     1     0.       0
 H21                  7    d20      1     100.     2    -150.     0
 Br22                 21   d21      7     160.     1     0.       0
       Variables:
  d1                    1.3                      
  d2                    1.3                      
  d3                    1.3                      
  d4                    1.3                      
  d5                    1.3                      
  d6                    1.4                      
  d7                    1.                       
  d8                    1.                       
  d9                    1.                       
  d10                   1.                       
  d11                   1.                       
  d12                   2.8                      
  d13                   1.2                      
  d14                   1.                       
  d15                   1.                       
  d16                   2.3                      
  d17                   1.4                      
  d18                   2.3                      
  d19                   1.4                      
  d20                   2.3                      
  d21                   1.4                      
 

 GradGradGradGradGradGradGradGradGradGradGradGradGradGradGradGradGradGrad
 Berny optimization.
 Initialization pass.
                       ----------------------------
                       !    Initial Parameters    !
                       ! (Angstroms and Degrees)  !
 ----------------------                            ----------------------
 !      Name          Value   Derivative information (Atomic Units)     !
 ------------------------------------------------------------------------
 !       d1          1.3      calculate D2E/DX2 analytically            !
 !       d2          1.3      calculate D2E/DX2 analytically            !
 !       d3          1.3      calculate D2E/DX2 analytically            !
 !       d4          1.3      calculate D2E/DX2 analytically            !
 !       d5          1.3      calculate D2E/DX2 analytically            !
 !       d6          1.4      calculate D2E/DX2 analytically            !
 !       d7          1.0      calculate D2E/DX2 analytically            !
 !       d8          1.0      calculate D2E/DX2 analytically            !
 !       d9          1.0      calculate D2E/DX2 analytically            !
 !       d10         1.0      calculate D2E/DX2 analytically            !
 !       d11         1.0      calculate D2E/DX2 analytically            !
 !       d12         2.8      calculate D2E/DX2 analytically            !
 !       d13         1.2      calculate D2E/DX2 analytically            !
 !       d14         1.0      calculate D2E/DX2 analytically            !
 !       d15         1.0      calculate D2E/DX2 analytically            !
 !       d16         2.3      calculate D2E/DX2 analytically            !
 !       d17         1.4      calculate D2E/DX2 analytically            !
 !       d18         2.3      calculate D2E/DX2 analytically            !
 !       d19         1.4      calculate D2E/DX2 analytically            !
 !       d20         2.3      calculate D2E/DX2 analytically            !
 !       d21         1.4      calculate D2E/DX2 analytically            !
 ------------------------------------------------------------------------
 Trust Radius=3.00D-01 FncErr=1.00D-07 GrdErr=1.00D-06 EigMax=2.50D+02 EigMin=1.00D-04
 Number of steps in this run=     31 maximum allowed number of steps=    100.
 GradGradGradGradGradGradGradGradGradGradGradGradGradGradGradGradGradGrad

 ---------------------------------------------------------------------------------------------------
                            Z-MATRIX (ANGSTROMS AND DEGREES)
   CD    Cent   Atom    N1       Length/X        N2       Alpha/Y        N3        Beta/Z          J
 ---------------------------------------------------------------------------------------------------
      1      1  C 
      2      2  C        1   1.300000(     1)
      3      3  C        2   1.300000(     2)      1  120.000(    22)
      4      4  C        3   1.300000(     3)      2  120.000(    23)      1    0.000(    42)      0
      5      5  C        4   1.300000(     4)      3  120.000(    24)      2    0.000(    43)      0
      6      6  C        5   1.300000(     5)      4  120.000(    25)      3    0.000(    44)      0
      7      7  F        1   1.400000(     6)      2  120.000(    26)      3  180.000(    45)      0
      8      8  H        2   1.000000(     7)      3  120.000(    27)      4  180.000(    46)      0
      9      9  H        3   1.000000(     8)      4  120.000(    28)      5  180.000(    47)      0
     10     10  H        4   1.000000(     9)      5  120.000(    29)      6  180.000(    48)      0
     11     11  H        5   1.000000(    10)      6  120.000(    30)      1  180.000(    49)      0
     12     12  H        6   1.000000(    11)      1  120.000(    31)      2  180.000(    50)      0
     13     13  O        7   2.800000(    12)      1  179.900(    32)      3  180.000(    51)      0
     14     14  C       13   1.200000(    13)      1  179.900(    33)      2  180.000(    52)      0
     15     15  H       14   1.000000(    14)      1  120.000(    34)      2   90.000(    53)      0
     16     16  H       14   1.000000(    15)      1  120.000(    35)      2  -90.000(    54)      0
     17     17  H        7   2.300000(    16)      1  100.000(    36)      2   90.000(    55)      0
     18     18  Br      17   1.400000(    17)      7  160.000(    37)      1    0.000(    56)      0
     19     19  H        7   2.300000(    18)      1  100.000(    38)      2  -30.000(    57)      0
     20     20  Br      19   1.400000(    19)      7  160.000(    39)      1    0.000(    58)      0
     21     21  H        7   2.300000(    20)      1  100.000(    40)      2 -150.000(    59)      0
     22     22  Br      21   1.400000(    21)      7  160.000(    41)      1    0.000(    60)      0
 ---------------------------------------------------------------------------------------------------
                         Z-Matrix orientation:                         
 ---------------------------------------------------------------------
 Center     Atomic      Atomic             Coordinates (Angstroms)
 Number     Number       Type             X           Y           Z
 ---------------------------------------------------------------------
      1          6           0        0.000000    0.000000    0.000000
      2          6           0        0.000000    0.000000    1.300000
      3          6           0        1.125833    0.000000    1.950000
      4          6           0        2.251666    0.000000    1.300000
      5          6           0        2.251666    0.000000   -0.000000
      6          6           0        1.125833    0.000000   -0.650000
      7          9           0       -1.212436   -0.000000   -0.700000
      8          1           0       -0.866025   -0.000000    1.800000
      9          1           0        1.125833   -0.000000    2.950000
     10          1           0        3.117691   -0.000000    1.800000
     11          1           0        3.117691   -0.000000   -0.500000
     12          1           0        1.125833   -0.000000   -1.650000
     13          8           0       -3.634860   -0.000000   -2.104230
     14          6           0       -4.672340   -0.000000   -2.707251
     15          1           0       -5.104965    0.866025   -2.957922
     16          1           0       -5.104965   -0.866025   -2.957922
     17          1           0       -1.558318    2.265058   -0.899695
     18         35           0       -1.347781    3.643789   -0.778142
     19          1           0       -2.539117   -1.132529    0.799098
     20         35           0       -2.925588   -1.821894    1.954700
     21          1           0       -0.577519   -1.132529   -2.598489
     22         35           0        0.230026   -1.821894   -3.510983
 ---------------------------------------------------------------------
                    Distance matrix (angstroms):
                    1          2          3          4          5
     1  C    0.000000
     2  C    1.300000   0.000000
     3  C    2.251666   1.300000   0.000000
     4  C    2.600000   2.251666   1.300000   0.000000
     5  C    2.251666   2.600000   2.251666   1.300000   0.000000
     6  C    1.300000   2.251666   2.600000   2.251666   1.300000
     7  F    1.400000   2.338803   3.534119   4.000000   3.534119
     8  H    1.997498   1.000000   1.997498   3.157531   3.600000
     9  H    3.157531   1.997498   1.000000   1.997498   3.157531
    10  H    3.600000   3.157531   1.997498   1.000000   1.997498
    11  H    3.157531   3.600000   3.157531   1.997498   1.000000
    12  H    1.997498   3.157531   3.600000   3.157531   1.997498
    13  O    4.199999   4.980059   6.253077   6.799997   6.251317
    14  C    5.399997   6.155390   7.436988   7.999995   7.434452
    15  H    5.963218   6.703772   7.978755   8.543999   7.976172
    16  H    5.963218   6.703772   7.978755   8.543999   7.976172
    17  H    2.892800   3.521009   4.522822   4.948245   4.522822
    18  Br   3.962223   4.405949   5.180610   5.527376   5.180610
    19  H    2.892800   2.825003   4.004879   4.948245   4.987262
    20  Br   3.962223   3.508133   4.442221   5.527376   5.826157
    21  H    2.892800   4.100532   4.987262   4.948245   4.004879
    22  Br   3.962223   5.149541   5.826157   5.527376   4.442221
                    6          7          8          9         10
     6  C    0.000000
     7  F    2.338803   0.000000
     8  H    3.157531   2.523886   0.000000
     9  H    3.600000   4.334743   2.300000   0.000000
    10  H    3.157531   5.000000   3.983717   2.300000   0.000000
    11  H    1.997498   4.334743   4.600000   3.983717   2.300000
    12  H    1.000000   2.523886   3.983717   4.600000   3.983717
    13  O    4.977849   2.800000   4.786382   6.943301   7.799997
    14  C    6.152324   3.999999   5.899436   8.100821   8.999995
    15  H    6.700697   4.582575   6.430896   8.629970   9.539387
    16  H    6.700697   4.582575   6.430896   8.629970   9.539387
    17  H    3.521009   2.300000   3.591394   5.211076   5.855246
    18  Br   4.405949   3.647139   4.489554   5.770182   6.313830
    19  H    4.100532   2.300000   2.254698   4.397824   5.855246
    20  Br   5.149541   3.647139   2.754093   4.552354   6.313830
    21  H    2.825003   2.300000   4.551105   5.913523   5.855246
    22  Br   3.508133   3.647139   5.720767   6.772450   6.313830
                   11         12         13         14         15
    11  H    0.000000
    12  H    2.300000   0.000000
    13  O    6.940497   4.782313   0.000000
    14  C    8.096700   5.893776   1.200000   0.000000
    15  H    8.625744   6.425224   1.907878   1.000000   0.000000
    16  H    8.625744   6.425224   1.907878   1.000000   1.732051
    17  H    5.211076   3.591394   3.300517   4.253807   4.332700
    18  Br   5.770182   4.489554   4.501826   5.296353   5.155952
    19  H    5.913523   4.551105   3.303421   4.257669   4.969204
    20  Br   6.772450   5.720767   4.505250   5.301342   6.009031
    21  H    4.397824   2.254698   3.297612   4.249942   4.961973
    22  Br   4.552354   2.754093   4.498399   5.291359   5.999409
                   16         17         18         19         20
    16  H    0.000000
    17  H    5.159329   0.000000
    18  Br   6.261493   1.400000   0.000000
    19  H    4.557389   3.923195   5.169156   0.000000
    20  Br   5.458683   5.169156   6.311227   1.400000   0.000000
    21  H    4.549503   3.923195   5.169156   3.923195   5.169156
    22  Br   5.448090   5.169156   6.311227   5.169156   6.311227
                   21         22
    21  H    0.000000
    22  Br   1.400000   0.000000
 Stoichiometry    C7H10Br3FO
 Framework group  C1[X(C7H10Br3FO)]
 Deg. of freedom    60
 Full point group                 C1      NOp   1
 Largest Abelian subgroup         C1      NOp   1
 Largest concise Abelian subgroup C1      NOp   1
                         Standard orientation:                         
 ---------------------------------------------------------------------
 Center     Atomic      Atomic             Coordinates (Angstroms)
 Number     Number       Type             X           Y           Z
 ---------------------------------------------------------------------
      1          6           0       -0.002995    0.000000    1.170156
      2          6           0       -1.130146    0.000000    1.817869
      3          6           0       -1.132786    0.000000    3.117866
      4          6           0       -0.008275    0.000000    3.770151
      5          6           0        1.118876    0.000000    3.122439
      6          6           0        1.121516    0.000000    1.822441
      7          9           0       -0.000152    0.000000   -0.229841
      8          1           0       -1.995154    0.000000    1.316111
      9          1           0       -1.999825    0.000000    3.616106
     10          1           0       -0.010306    0.000000    4.770149
     11          1           0        1.983884    0.000000    3.624196
     12          1           0        1.988555    0.000000    1.324201
     13          8           0        0.010421    0.000000   -3.029821
     14          6           0        0.016349    0.000000   -4.229806
     15          1           0        0.018140    0.866025   -4.729803
     16          1           0        0.018140   -0.866025   -4.729803
     17          1           0        0.000659    2.265058   -0.629231
     18         35           0        0.000165    3.643789   -0.386124
     19          1           0       -1.960935   -1.132529   -0.633215
     20         35           0       -3.155442   -1.821894   -0.392532
     21          1           0        1.962253   -1.132529   -0.625247
     22         35           0        3.155772   -1.821894   -0.379716
 ---------------------------------------------------------------------
 Rotational constants (GHZ):           0.1960650           0.1904981           0.1561111
 Standard basis: 6-311++G(d,p) (5D, 7F)
 There are   430 symmetry adapted cartesian basis functions of A   symmetry.
 There are   412 symmetry adapted basis functions of A   symmetry.
   412 basis functions,   696 primitive gaussians,   430 cartesian basis functions
    87 alpha electrons       87 beta electrons
       nuclear repulsion energy      1603.3030283073 Hartrees.
 NAtoms=   22 NActive=   22 NUniq=   22 SFac= 1.00D+00 NAtFMM=   60 NAOKFM=F Big=F
 Integral buffers will be    131072 words long.
 Raffenetti 2 integral format.
 Two-electron integral symmetry is turned on.
 Force inversion solution in PCM.
 ------------------------------------------------------------------------------
 Polarizable Continuum Model (PCM)
 =================================
 Model                : PCM.
 Atomic radii         : UFF (Universal Force Field).
 Polarization charges : Total charges.
 Charge compensation  : None.
 Solution method      : Matrix inversion.
 Cavity type          : Scaled VdW (van der Waals Surface) (Alpha=1.100).
 Cavity algorithm     : GePol (No added spheres)
                        Default sphere list used, NSphG=   22.
                        Lebedev-Laikov grids with approx.  5.0 points / Ang**2.
                        Smoothing algorithm: York/Karplus (Gamma=1.0000).
                        Polarization charges: spherical gaussians, with
                                              point-specific exponents (IZeta= 3).
                        Self-potential: point-specific (ISelfS= 7).
                        Self-field    : sphere-specific E.n sum rule (ISelfD= 2).
 1st derivatives      : Analytical E(r).r(x)/FMM algorithm (CHGder, D1EAlg=3).
                        Cavity 1st derivative terms included.
 2nd derivatives      : Analytical E(r).r(xy)/FMM algorithm (CHGder, D2EAlg=3).
                        Cavity 2nd derivative terms included.
 Solvent              : Chloroform, Eps=   4.711300 Eps(inf)=   2.090627
 ------------------------------------------------------------------------------
 One-electron integrals computed using PRISM.
 NBasis=   412 RedAO= T EigKep=  3.14D-06  NBF=   412
 NBsUse=   411 1.00D-06 EigRej=  3.76D-07 NBFU=   411
 ExpMin= 3.50D-02 ExpMax= 4.40D+05 ExpMxC= 1.51D+04 IAcc=3 IRadAn=         5 AccDes= 0.00D+00
 Harris functional with IExCor= 1009 and IRadAn=       5 diagonalized for initial guess.
 HarFok:  IExCor= 1009 AccDes= 0.00D+00 IRadAn=         5 IDoV= 1 UseB2=F ITyADJ=14
 ICtDFT=  3500011 ScaDFX=  1.000000  1.000000  1.000000  1.000000
 FoFCou: FMM=F IPFlag=           0 FMFlag=      100000 FMFlg1=           0
         NFxFlg=           0 DoJE=T BraDBF=F KetDBF=T FulRan=T
         wScrn=  0.000000 ICntrl=       500 IOpCl=  0 I1Cent=   200000004 NGrid=           0
         NMat0=    1 NMatS0=      1 NMatT0=    0 NMatD0=    1 NMtDS0=    0 NMtDT0=    0
 Petite list used in FoFCou.
 Requested convergence on RMS density matrix=1.00D-08 within 128 cycles.
 Requested convergence on MAX density matrix=1.00D-06.
 Requested convergence on             energy=1.00D-06.
 No special actions if energy rises.
 Inv3:  Mode=1 IEnd=    20077707.
 Iteration    1 A*A^-1 deviation from unit magnitude is 1.13D-14 for   2572.
 Iteration    1 A*A^-1 deviation from orthogonality  is 3.62D-15 for   2585   2324.
 Iteration    1 A^-1*A deviation from unit magnitude is 1.11D-14 for   2572.
 Iteration    1 A^-1*A deviation from orthogonality  is 2.94D-15 for   2580   2319.
 Error on total polarization charges =  0.01861
 SCF Done:  E(RM062X) =  -8170.15039613     A.U. after   15 cycles
            NFock= 15  Conv=0.11D-08     -V/T= 2.0010
 DoSCS=F DFT=T ScalE2(SS,OS)=  1.000000  1.000000
 Range of M.O.s used for correlation:     1   411
 NBasis=   412 NAE=    87 NBE=    87 NFC=     0 NFV=     0
 NROrb=    411 NOA=    87 NOB=    87 NVA=   324 NVB=   324

 **** Warning!!: The largest alpha MO coefficient is  0.17133832D+03

 Symmetrizing basis deriv contribution to polar:
 IMax=3 JMax=2 DiffMx= 0.00D+00
 G2DrvN: will do    23 centers at a time, making    1 passes.
 Calling FoFCou, ICntrl=  3107 FMM=F I1Cent=   0 AccDes= 0.00D+00.
 NEqPCM:  Using equilibrium solvation (IEInf=0, Eps=   4.7113, EpsInf=   2.0906)
 G2PCM: DoFxE=T DoFxN=T DoGrad=T DoDP/DQ/DG/TGxP=FFFF NFrqRd=   0 IEInf=0 SqF1=F DoCFld=F IF1Alg=4.
 End of G2Drv F.D. properties file   721 does not exist.
 End of G2Drv F.D. properties file   722 does not exist.
 End of G2Drv F.D. properties file   788 does not exist.
          IDoAtm=1111111111111111111111
 NEqPCM:  Using equilibrium solvation (IEInf=0, Eps=   4.7113, EpsInf=   2.0906)
          Differentiating once with respect to electric field.
                with respect to dipole field.
          Differentiating once with respect to nuclear coordinates.
 CalDSu exits because no D1Ps are significant.
          There are    69 degrees of freedom in the 1st order CPHF.  IDoFFX=6 NUNeed=     3.
     66 vectors produced by pass  0 Test12= 4.09D-14 1.45D-09 XBig12= 7.71D+01 3.64D+00.
 AX will form    66 AO Fock derivatives at one time.
     66 vectors produced by pass  1 Test12= 4.09D-14 1.45D-09 XBig12= 9.96D+00 5.29D-01.
     66 vectors produced by pass  2 Test12= 4.09D-14 1.45D-09 XBig12= 1.24D-01 7.19D-02.
     66 vectors produced by pass  3 Test12= 4.09D-14 1.45D-09 XBig12= 1.33D-03 7.11D-03.
     66 vectors produced by pass  4 Test12= 4.09D-14 1.45D-09 XBig12= 1.32D-05 4.66D-04.
     66 vectors produced by pass  5 Test12= 4.09D-14 1.45D-09 XBig12= 5.32D-08 2.20D-05.
     50 vectors produced by pass  6 Test12= 4.09D-14 1.45D-09 XBig12= 1.88D-10 1.68D-06.
     11 vectors produced by pass  7 Test12= 4.09D-14 1.45D-09 XBig12= 6.80D-13 9.22D-08.
      3 vectors produced by pass  8 Test12= 4.09D-14 1.45D-09 XBig12= 2.30D-15 5.22D-09.
 InvSVY:  IOpt=1 It=  1 EMax= 6.22D-15
 Solved reduced A of dimension   460 with    69 vectors.
 Isotropic polarizability for W=    0.000000      149.54 Bohr**3.
 End of Minotr F.D. properties file   721 does not exist.
 End of Minotr F.D. properties file   722 does not exist.
 End of Minotr F.D. properties file   788 does not exist.

 **********************************************************************

            Population analysis using the SCF Density.

 **********************************************************************

 Orbital symmetries:
       Occupied  (A) (A) (A) (A) (A) (A) (A) (A) (A) (A) (A) (A)
                 (A) (A) (A) (A) (A) (A) (A) (A) (A) (A) (A) (A)
                 (A) (A) (A) (A) (A) (A) (A) (A) (A) (A) (A) (A)
                 (A) (A) (A) (A) (A) (A) (A) (A) (A) (A) (A) (A)
                 (A) (A) (A) (A) (A) (A) (A) (A) (A) (A) (A) (A)
                 (A) (A) (A) (A) (A) (A) (A) (A) (A) (A) (A) (A)
                 (A) (A) (A) (A) (A) (A) (A) (A) (A) (A) (A) (A)
                 (A) (A) (A)
       Virtual   (A) (A) (A) (A) (A) (A) (A) (A) (A) (A) (A) (A)
                 (A) (A) (A) (A) (A) (A) (A) (A) (A) (A) (A) (A)
                 (A) (A) (A) (A) (A) (A) (A) (A) (A) (A) (A) (A)
                 (A) (A) (A) (A) (A) (A) (A) (A) (A) (A) (A) (A)
                 (A) (A) (A) (A) (A) (A) (A) (A) (A) (A) (A) (A)
                 (A) (A) (A) (A) (A) (A) (A) (A) (A) (A) (A) (A)
                 (A) (A) (A) (A) (A) (A) (A) (A) (A) (A) (A) (A)
                 (A) (A) (A) (A) (A) (A) (A) (A) (A) (A) (A) (A)
                 (A) (A) (A) (A) (A) (A) (A) (A) (A) (A) (A) (A)
                 (A) (A) (A) (A) (A) (A) (A) (A) (A) (A) (A) (A)
                 (A) (A) (A) (A) (A) (A) (A) (A) (A) (A) (A) (A)
                 (A) (A) (A) (A) (A) (A) (A) (A) (A) (A) (A) (A)
                 (A) (A) (A) (A) (A) (A) (A) (A) (A) (A) (A) (A)
                 (A) (A) (A) (A) (A) (A) (A) (A) (A) (A) (A) (A)
                 (A) (A) (A) (A) (A) (A) (A) (A) (A) (A) (A) (A)
                 (A) (A) (A) (A) (A) (A) (A) (A) (A) (A) (A) (A)
                 (A) (A) (A) (A) (A) (A) (A) (A) (A) (A) (A) (A)
                 (A) (A) (A) (A) (A) (A) (A) (A) (A) (A) (A) (A)
                 (A) (A) (A) (A) (A) (A) (A) (A) (A) (A) (A) (A)
                 (A) (A) (A) (A) (A) (A) (A) (A) (A) (A) (A) (A)
                 (A) (A) (A) (A) (A) (A) (A) (A) (A) (A) (A) (A)
                 (A) (A) (A) (A) (A) (A) (A) (A) (A) (A) (A) (A)
                 (A) (A) (A) (A) (A) (A) (A) (A) (A) (A) (A) (A)
                 (A) (A) (A) (A) (A) (A) (A) (A) (A) (A) (A) (A)
                 (A) (A) (A) (A) (A) (A) (A) (A) (A) (A) (A) (A)
                 (A) (A) (A) (A) (A) (A) (A) (A) (A) (A) (A) (A)
                 (A) (A) (A) (A) (A) (A) (A) (A) (A) (A) (A) (A)
 The electronic state is 1-A.
 Alpha  occ. eigenvalues -- -485.34174-485.34174-485.33984 -63.33422 -63.33422
 Alpha  occ. eigenvalues --  -63.33226 -57.16144 -57.16144 -57.15948 -57.15919
 Alpha  occ. eigenvalues --  -57.15919 -57.15917 -57.15916 -57.15724 -57.15724
 Alpha  occ. eigenvalues --  -25.26754 -19.64118 -10.61874 -10.61836 -10.52773
 Alpha  occ. eigenvalues --  -10.52770 -10.52470 -10.52458 -10.51740  -9.02159
 Alpha  occ. eigenvalues --   -9.02159  -9.01957  -6.84911  -6.84911  -6.84706
 Alpha  occ. eigenvalues --   -6.83963  -6.83963  -6.83957  -6.83956  -6.83760
 Alpha  occ. eigenvalues --   -6.83760  -2.88096  -2.88096  -2.87891  -2.87717
 Alpha  occ. eigenvalues --   -2.87716  -2.87711  -2.87711  -2.87510  -2.87509
 Alpha  occ. eigenvalues --   -2.86893  -2.86892  -2.86892  -2.86892  -2.86694
 Alpha  occ. eigenvalues --   -2.86694  -1.37270  -1.19294  -1.03535  -0.89847
 Alpha  occ. eigenvalues --   -0.88981  -0.88499  -0.88461  -0.88252  -0.75259
 Alpha  occ. eigenvalues --   -0.74346  -0.72884  -0.67074  -0.60729  -0.59999
 Alpha  occ. eigenvalues --   -0.59603  -0.58514  -0.54399  -0.53866  -0.53410
 Alpha  occ. eigenvalues --   -0.51572  -0.50539  -0.50075  -0.49854  -0.48204
 Alpha  occ. eigenvalues --   -0.47693  -0.44837  -0.42608  -0.36882  -0.36807
 Alpha  occ. eigenvalues --   -0.36734  -0.36637  -0.36573  -0.36542  -0.35231
 Alpha  occ. eigenvalues --   -0.33954  -0.33235
 Alpha virt. eigenvalues --   -0.00850  -0.00433   0.00687   0.01070   0.01545
 Alpha virt. eigenvalues --    0.01717   0.02094   0.02901   0.02988   0.03224
 Alpha virt. eigenvalues --    0.03601   0.03916   0.04224   0.04733   0.05596
 Alpha virt. eigenvalues --    0.05976   0.06157   0.06973   0.07094   0.07350
 Alpha virt. eigenvalues --    0.07610   0.08029   0.08403   0.08808   0.08918
 Alpha virt. eigenvalues --    0.09298   0.10367   0.11264   0.11396   0.12269
 Alpha virt. eigenvalues --    0.12443   0.12836   0.13423   0.13924   0.14125
 Alpha virt. eigenvalues --    0.14347   0.14565   0.15109   0.15819   0.16069
 Alpha virt. eigenvalues --    0.16250   0.16422   0.17070   0.17883   0.17976
 Alpha virt. eigenvalues --    0.18741   0.19055   0.20400   0.20405   0.21334
 Alpha virt. eigenvalues --    0.21910   0.21958   0.22600   0.22946   0.23211
 Alpha virt. eigenvalues --    0.25215   0.26163   0.26982   0.28071   0.29251
 Alpha virt. eigenvalues --    0.30878   0.31437   0.33127   0.34428   0.34590
 Alpha virt. eigenvalues --    0.34995   0.35427   0.35646   0.37682   0.38825
 Alpha virt. eigenvalues --    0.39076   0.40442   0.42820   0.43476   0.43543
 Alpha virt. eigenvalues --    0.44671   0.44845   0.45599   0.46449   0.46501
 Alpha virt. eigenvalues --    0.47027   0.47669   0.48472   0.48486   0.49356
 Alpha virt. eigenvalues --    0.50904   0.51356   0.52221   0.53747   0.55053
 Alpha virt. eigenvalues --    0.55494   0.57431   0.58404   0.58423   0.59844
 Alpha virt. eigenvalues --    0.60253   0.61271   0.61552   0.61788   0.62042
 Alpha virt. eigenvalues --    0.62984   0.63186   0.63953   0.64175   0.65043
 Alpha virt. eigenvalues --    0.66752   0.67141   0.67301   0.67316   0.68514
 Alpha virt. eigenvalues --    0.69358   0.69783   0.71105   0.72113   0.73867
 Alpha virt. eigenvalues --    0.74084   0.74312   0.74394   0.75085   0.75874
 Alpha virt. eigenvalues --    0.78058   0.79556   0.81180   0.81967   0.82053
 Alpha virt. eigenvalues --    0.84068   0.86597   0.87510   0.87948   0.90275
 Alpha virt. eigenvalues --    0.91308   0.93429   0.94926   0.97608   0.98345
 Alpha virt. eigenvalues --    0.98786   1.00125   1.02175   1.03469   1.03636
 Alpha virt. eigenvalues --    1.06806   1.08192   1.08306   1.08704   1.12094
 Alpha virt. eigenvalues --    1.13211   1.16687   1.18978   1.19006   1.22943
 Alpha virt. eigenvalues --    1.24088   1.26827   1.28548   1.34644   1.35203
 Alpha virt. eigenvalues --    1.39099   1.45884   1.47660   1.48294   1.49246
 Alpha virt. eigenvalues --    1.50529   1.52451   1.53384   1.55530   1.58025
 Alpha virt. eigenvalues --    1.58223   1.61391   1.64464   1.65689   1.66178
 Alpha virt. eigenvalues --    1.67372   1.67920   1.68130   1.71906   1.73417
 Alpha virt. eigenvalues --    1.73723   1.77020   1.77376   1.80286   1.82198
 Alpha virt. eigenvalues --    1.85408   1.85835   1.86086   1.90634   1.94160
 Alpha virt. eigenvalues --    1.97062   1.98207   2.02693   2.02851   2.03177
 Alpha virt. eigenvalues --    2.03481   2.03701   2.04025   2.04393   2.04941
 Alpha virt. eigenvalues --    2.05631   2.05952   2.06168   2.06494   2.07070
 Alpha virt. eigenvalues --    2.07954   2.08917   2.10940   2.12245   2.14361
 Alpha virt. eigenvalues --    2.17338   2.18669   2.18795   2.20152   2.22157
 Alpha virt. eigenvalues --    2.29067   2.37103   2.41014   2.46418   2.48905
 Alpha virt. eigenvalues --    2.50603   2.52071   2.57685   2.59901   2.62585
 Alpha virt. eigenvalues --    2.64035   2.65623   2.67018   2.71264   2.71802
 Alpha virt. eigenvalues --    2.75104   2.77450   2.78435   2.78719   2.78921
 Alpha virt. eigenvalues --    2.81174   2.86199   2.86257   2.88838   2.90365
 Alpha virt. eigenvalues --    2.90579   2.96481   2.98969   2.99919   3.03496
 Alpha virt. eigenvalues --    3.08286   3.11992   3.24422   3.27287   3.35194
 Alpha virt. eigenvalues --    3.40085   3.42356   3.55312   3.59681   3.61820
 Alpha virt. eigenvalues --    3.64548   3.75303   3.75985   3.86117   3.88207
 Alpha virt. eigenvalues --    3.97478   4.00211   4.03444   4.09139   4.13892
 Alpha virt. eigenvalues --    4.16990   4.18962   4.25632   4.25975   4.28213
 Alpha virt. eigenvalues --    4.28223   4.29112   4.29383   4.29899   4.29926
 Alpha virt. eigenvalues --    4.33154   4.33662   4.34164   4.35080   4.36366
 Alpha virt. eigenvalues --    4.36950   4.37245   4.49221   4.50058   4.52379
 Alpha virt. eigenvalues --    4.94384   4.95708   5.12863   5.23849   5.83538
 Alpha virt. eigenvalues --    6.53142   6.64830   6.82842   6.83417   6.88804
 Alpha virt. eigenvalues --    6.92832   7.62853   7.63286   7.64202   7.65233
 Alpha virt. eigenvalues --    7.65839   7.66282   7.67565   7.68031   7.68275
 Alpha virt. eigenvalues --   23.73839  24.17661  24.26752  24.31581  24.53968
 Alpha virt. eigenvalues --   24.57172  24.72757  48.35459  48.36112  48.41959
 Alpha virt. eigenvalues --   50.07134  66.96548 290.77513 290.78009 290.79099
 Alpha virt. eigenvalues --  290.80174 290.80995 290.81290 290.84695 290.85160
 Alpha virt. eigenvalues --  290.852641020.911161020.919951020.99389
          Condensed to atoms (all electrons):
               1          2          3          4          5          6
     1  C   16.006278  -1.332518  -2.779795  -1.113413  -2.783871  -1.340617
     2  C   -1.332518  18.656297   0.491357  -1.112452  -0.287002 -10.632581
     3  C   -2.779795   0.491357   8.073203   0.950933  -0.767930  -0.285953
     4  C   -1.113413  -1.112452   0.950933   7.220137   0.952771  -1.109614
     5  C   -2.783871  -0.287002  -0.767930   0.952771   8.076876   0.491452
     6  C   -1.340617 -10.632581  -0.285953  -1.109614   0.491452  18.659694
     7  F    0.469638  -0.250705  -0.005428   0.023367  -0.005492  -0.249651
     8  H   -0.592443   0.539392   0.190359   0.093793   0.135636  -0.218782
     9  H    0.081027  -0.052130   0.414287  -0.128328  -0.055303   0.092753
    10  H    0.043776  -0.012060  -0.071968   0.478907  -0.071945  -0.011928
    11  H    0.081272   0.092835  -0.055287  -0.128358   0.414142  -0.052273
    12  H   -0.592504  -0.218849   0.135540   0.093726   0.190421   0.539526
    13  O    0.027776  -0.012964  -0.000989  -0.000702  -0.000982  -0.012929
    14  C   -0.003238   0.001019   0.000745   0.000328   0.000750   0.001039
    15  H    0.002326  -0.000936  -0.000302  -0.000056  -0.000308  -0.000982
    16  H   -0.003243   0.001206   0.000280   0.000039   0.000283   0.001232
    17  H   -0.084963   0.018021   0.007635  -0.008547   0.007439   0.016394
    18  Br   0.281071  -0.073547  -0.039928   0.002181  -0.039736  -0.072351
    19  H   -0.068609   0.273699  -0.027029   0.006958  -0.007398  -0.203369
    20  Br  -0.000420  -0.320721   0.125149   0.021510   0.022656   0.084416
    21  H   -0.068579  -0.203263  -0.007235   0.006956  -0.027308   0.273615
    22  Br  -0.000480   0.084486   0.022575   0.021477   0.125368  -0.320757
               7          8          9         10         11         12
     1  C    0.469638  -0.592443   0.081027   0.043776   0.081272  -0.592504
     2  C   -0.250705   0.539392  -0.052130  -0.012060   0.092835  -0.218849
     3  C   -0.005428   0.190359   0.414287  -0.071968  -0.055287   0.135540
     4  C    0.023367   0.093793  -0.128328   0.478907  -0.128358   0.093726
     5  C   -0.005492   0.135636  -0.055303  -0.071945   0.414142   0.190421
     6  C   -0.249651  -0.218782   0.092753  -0.011928  -0.052273   0.539526
     7  F    9.258199  -0.001445  -0.001692   0.001451  -0.001682  -0.001517
     8  H   -0.001445   0.813848  -0.045743  -0.001794   0.004589  -0.011853
     9  H   -0.001692  -0.045743   0.486952  -0.014011  -0.000307   0.004599
    10  H    0.001451  -0.001794  -0.014011   0.494242  -0.014007  -0.001794
    11  H   -0.001682   0.004589  -0.000307  -0.014007   0.486943  -0.045775
    12  H   -0.001517  -0.011853   0.004599  -0.001794  -0.045775   0.814158
    13  O    0.012759   0.001930   0.000019  -0.000001   0.000020   0.001906
    14  C    0.004673   0.000533  -0.000043   0.000015  -0.000043   0.000528
    15  H   -0.000345  -0.000080   0.000001  -0.000001   0.000001  -0.000079
    16  H   -0.000470  -0.000166   0.000005  -0.000001   0.000005  -0.000165
    17  H   -0.022792   0.008674   0.001098  -0.001047   0.001109   0.008558
    18  Br   0.001739  -0.001681  -0.001592   0.001387  -0.001598  -0.001618
    19  H   -0.041095  -0.000297   0.000043   0.000393  -0.000188   0.003035
    20  Br   0.019227   0.095617  -0.006055  -0.000599   0.000470  -0.004359
    21  H   -0.041055   0.002966  -0.000180   0.000391   0.000055  -0.000324
    22  Br   0.019169  -0.004315   0.000466  -0.000599  -0.006057   0.095639
              13         14         15         16         17         18
     1  C    0.027776  -0.003238   0.002326  -0.003243  -0.084963   0.281071
     2  C   -0.012964   0.001019  -0.000936   0.001206   0.018021  -0.073547
     3  C   -0.000989   0.000745  -0.000302   0.000280   0.007635  -0.039928
     4  C   -0.000702   0.000328  -0.000056   0.000039  -0.008547   0.002181
     5  C   -0.000982   0.000750  -0.000308   0.000283   0.007439  -0.039736
     6  C   -0.012929   0.001039  -0.000982   0.001232   0.016394  -0.072351
     7  F    0.012759   0.004673  -0.000345  -0.000470  -0.022792   0.001739
     8  H    0.001930   0.000533  -0.000080  -0.000166   0.008674  -0.001681
     9  H    0.000019  -0.000043   0.000001   0.000005   0.001098  -0.001592
    10  H   -0.000001   0.000015  -0.000001  -0.000001  -0.001047   0.001387
    11  H    0.000020  -0.000043   0.000001   0.000005   0.001109  -0.001598
    12  H    0.001906   0.000528  -0.000079  -0.000165   0.008558  -0.001618
    13  O    8.203609   0.260381  -0.087706  -0.092077   0.010358  -0.005163
    14  C    0.260381   4.815491   0.413227   0.415226  -0.002268   0.000079
    15  H   -0.087706   0.413227   0.686472  -0.132692   0.003530  -0.000440
    16  H   -0.092077   0.415226  -0.132692   0.686125  -0.000886   0.000315
    17  H    0.010358  -0.002268   0.003530  -0.000886   0.633440   0.233932
    18  Br  -0.005163   0.000079  -0.000440   0.000315   0.233932  34.853892
    19  H    0.012945   0.001852  -0.000185   0.000530   0.006379  -0.005176
    20  Br  -0.007843  -0.001302  -0.000026  -0.000197  -0.000998   0.000931
    21  H    0.013010   0.002004  -0.000180   0.000513   0.006361  -0.005178
    22  Br  -0.007919  -0.001352  -0.000032  -0.000187  -0.001019   0.000945
              19         20         21         22
     1  C   -0.068609  -0.000420  -0.068579  -0.000480
     2  C    0.273699  -0.320721  -0.203263   0.084486
     3  C   -0.027029   0.125149  -0.007235   0.022575
     4  C    0.006958   0.021510   0.006956   0.021477
     5  C   -0.007398   0.022656  -0.027308   0.125368
     6  C   -0.203369   0.084416   0.273615  -0.320757
     7  F   -0.041095   0.019227  -0.041055   0.019169
     8  H   -0.000297   0.095617   0.002966  -0.004315
     9  H    0.000043  -0.006055  -0.000180   0.000466
    10  H    0.000393  -0.000599   0.000391  -0.000599
    11  H   -0.000188   0.000470   0.000055  -0.006057
    12  H    0.003035  -0.004359  -0.000324   0.095639
    13  O    0.012945  -0.007843   0.013010  -0.007919
    14  C    0.001852  -0.001302   0.002004  -0.001352
    15  H   -0.000185  -0.000026  -0.000180  -0.000032
    16  H    0.000530  -0.000197   0.000513  -0.000187
    17  H    0.006379  -0.000998   0.006361  -0.001019
    18  Br  -0.005176   0.000931  -0.005178   0.000945
    19  H    0.696566   0.195944  -0.026864   0.014236
    20  Br   0.195944  34.904366   0.014253  -0.006150
    21  H   -0.026864   0.014253   0.696839   0.195711
    22  Br   0.014236  -0.006150   0.195711  34.904547
 Mulliken charges:
               1
     1  C   -0.228473
     2  C    0.351417
     3  C   -0.370220
     4  C   -0.271614
     5  C   -0.370518
     6  C    0.351667
     7  F   -0.186854
     8  H   -0.008739
     9  H    0.224135
    10  H    0.181193
    11  H    0.224132
    12  H   -0.008798
    13  O   -0.315438
    14  C    0.090354
    15  H    0.118796
    16  H    0.124325
    17  H    0.159593
    18  Br  -0.128463
    19  H    0.167631
    20  Br  -0.135868
    21  H    0.167490
    22  Br  -0.135749
 Sum of Mulliken charges =  -0.00000
 Mulliken charges with hydrogens summed into heavy atoms:
               1
     1  C   -0.228473
     2  C    0.342678
     3  C   -0.146084
     4  C   -0.090421
     5  C   -0.146386
     6  C    0.342869
     7  F   -0.186854
    13  O   -0.315438
    14  C    0.333475
    18  Br   0.031131
    20  Br   0.031763
    22  Br   0.031741
 APT charges:
               1
     1  C    0.719089
     2  C   -0.178714
     3  C    0.003693
     4  C   -0.071782
     5  C    0.003672
     6  C   -0.178716
     7  F   -0.757088
     8  H    0.107594
     9  H    0.063433
    10  H    0.056697
    11  H    0.063437
    12  H    0.107557
    13  O   -0.699912
    14  C    0.683048
    15  H    0.002691
    16  H    0.000768
    17  H    0.241317
    18  Br  -0.214723
    19  H    0.237371
    20  Br  -0.213505
    21  H    0.237552
    22  Br  -0.213481
 Sum of APT charges =  -0.00000
 APT charges with hydrogens summed into heavy atoms:
               1
     1  C    0.719089
     2  C   -0.071120
     3  C    0.067126
     4  C   -0.015084
     5  C    0.067108
     6  C   -0.071159
     7  F   -0.757088
    13  O   -0.699912
    14  C    0.686508
    18  Br   0.026594
    20  Br   0.023866
    22  Br   0.024071
 Electronic spatial extent (au):  <R**2>=           7384.0492
 Charge=             -0.0000 electrons
 Dipole moment (field-independent basis, Debye):
    X=              0.0097    Y=             -0.0914    Z=             -0.8731  Tot=              0.8779
 Quadrupole moment (field-independent basis, Debye-Ang):
   XX=           -112.9427   YY=           -120.9264   ZZ=            -78.7049
   XY=              0.0003   XZ=             -0.1171   YZ=             -0.0886
 Traceless Quadrupole moment (field-independent basis, Debye-Ang):
   XX=             -8.7514   YY=            -16.7350   ZZ=             25.4864
   XY=              0.0003   XZ=             -0.1171   YZ=             -0.0886
 Octapole moment (field-independent basis, Debye-Ang**2):
  XXX=             -0.0377  YYY=             -4.8785  ZZZ=           -128.7439  XYY=              0.0433
  XXY=              3.8180  XXZ=              1.6582  XZZ=              0.4845  YZZ=             -0.1117
  YYZ=            -21.5867  XYZ=              0.0076
 Hexadecapole moment (field-independent basis, Debye-Ang**3):
 XXXX=          -2584.0447 YYYY=          -2406.0416 ZZZZ=          -1840.0674 XXXY=              0.0765
 XXXZ=              0.8297 YYYX=             -0.0218 YYYZ=             11.8907 ZZZX=             -1.6077
 ZZZY=             -0.4025 XXYY=           -840.6100 XXZZ=           -848.3341 YYZZ=           -869.4291
 XXYZ=            -13.2158 YYXZ=              0.3565 ZZXY=             -0.0519
 N-N= 1.603303028307D+03 E-N=-2.271802895802D+04  KE= 8.162170005890D+03
  Exact polarizability: 154.496  -0.000 126.093  -0.068   1.328 168.046
 Approx polarizability: 161.593  -0.000 130.750  -0.052   0.433 168.654
 D2PCM: PCM CHGder 2nd derivatives, FixD1E=F FixD2E=F DoIter=F DoCFld=F I1PDM=0
 Calling FoFJK, ICntrl=    100127 FMM=F ISym2X=0 I1Cent= 0 IOpClX= 0 NMat=1 NMatS=1 NMatT=0.
 ***** Axes restored to original set *****
 -------------------------------------------------------------------
 Center     Atomic                   Forces (Hartrees/Bohr)
 Number     Number              X              Y              Z
 -------------------------------------------------------------------
      1        6          -0.081077755    0.000160751   -0.046807849
      2        6          -0.053490847    0.001226587    0.014444014
      3        6           0.002699305    0.000122979    0.037224727
      4        6           0.038780188   -0.000341304    0.022389879
      5        6           0.033581882    0.000123008   -0.016282585
      6        6          -0.014247720    0.001226112   -0.053544163
      7        9           0.018790673    0.000063415    0.010860200
      8        1          -0.062313247    0.002011869    0.036502106
      9        1          -0.001846493    0.000074173    0.073747984
     10        1           0.064242030    0.000004221    0.037089429
     11        1           0.062945242    0.000074190   -0.038471531
     12        1           0.000453021    0.002009364   -0.072216284
     13        8           0.016144761   -0.000047976    0.009298237
     14        6           0.061677537   -0.000009253    0.035942272
     15        1          -0.039108993    0.071627941   -0.022743448
     16        1          -0.039100765   -0.071604905   -0.022738847
     17        1          -0.002667589   -0.014260913   -0.001540957
     18       35           0.002274038    0.012348155    0.001310865
     19        1           0.002306709    0.006005567   -0.012599133
     20       35          -0.006368986   -0.008412703    0.010706278
     21        1          -0.009739428    0.006022279    0.008315227
     22       35           0.006066439   -0.008423558   -0.010886420
 -------------------------------------------------------------------
 Cartesian Forces:  Max     0.081077755 RMS     0.032101641
 -----------------------------------------------------------------------------------------------
                       Internal Coordinate Forces (Hartree/Bohr or radian)
  Cent   Atom   N1       Length/X         N2         Alpha/Y        N3         Beta/Z          J
 -----------------------------------------------------------------------------------------------
      1  C 
      2  C        1   0.041185(     1)
      3  C        2   0.156877(     2)      1   0.174323(    22)
      4  C        3   0.221386(     3)      2   0.425377(    23)      1   0.010718(    42)     0
      5  C        4   0.180213(     4)      3   0.450370(    24)      2   0.014301(    43)     0
      6  C        5   0.074525(     5)      4   0.246699(    25)      3   0.006998(    44)     0
      7  F        1  -0.011860(     6)      2   0.000026(    26)      3   0.003127(    45)     0
      8  H        2   0.072216(     7)      3  -0.000860(    27)      4   0.003293(    46)     0
      9  H        3   0.073748(     8)      4   0.003489(    28)      5   0.000121(    47)     0
     10  H        4   0.074180(     9)      5  -0.000001(    29)      6   0.000007(    48)     0
     11  H        5   0.073748(    10)      6  -0.003486(    30)      1   0.000121(    49)     0
     12  H        6   0.072216(    11)      1   0.000856(    31)      2   0.003288(    50)     0
     13  O        7   0.000456(    12)      1  -0.000079(    32)      3   0.000000(    51)     0
     14  C       13   0.019087(    13)      1   0.000105(    33)      2  -0.000000(    52)     0
     15  H       14   0.084652(    14)      1   0.006361(    34)      2   0.000117(    53)     0
     16  H       14   0.084628(    15)      1   0.006367(    35)      2  -0.000118(    54)     0
     17  H        7  -0.001805(    16)      1   0.002229(    36)      2   0.000015(    55)     0
     18  Br      17   0.012616(    17)      7  -0.001166(    37)      1   0.000002(    56)     0
     19  H        7   0.002295(    18)      1   0.025257(    38)      2  -0.010839(    57)     0
     20  Br      19   0.014738(    19)      7   0.007312(    39)      1  -0.000957(    58)     0
     21  H        7   0.002291(    20)      1   0.025343(    40)      2   0.010839(    59)     0
     22  Br      21   0.014743(    21)      7   0.007386(    41)      1   0.000963(    60)     0
 -----------------------------------------------------------------------------------------------
 Internal  Forces:  Max     0.450369984 RMS     0.102694226

 GradGradGradGradGradGradGradGradGradGradGradGradGradGradGradGradGradGrad
 Berny optimization.
 Search for a local minimum.
 Step number   1 out of a maximum of   31
 All quantities printed in internal units (Hartrees-Bohrs-Radians)
 Second derivative matrix not updated -- analytic derivatives used.
 ITU=  0
     Eigenvalues ---    0.00117   0.00349   0.00793   0.00805   0.29655
     Eigenvalues ---    0.29853   0.29876   0.31461   0.57093   0.57297
     Eigenvalues ---    0.57364   0.57419   0.57482   0.57597   0.57786
     Eigenvalues ---    0.58281   0.77030   0.81397   0.96326   1.13092
     Eigenvalues ---    2.19167
 RFO step:  Lambda=-1.39338255D-01 EMin= 1.17190655D-03
 Linear search not attempted -- first point.
 Maximum step size (   0.300) exceeded in Quadratic search.
    -- Step size scaled by   0.768
 Variable       Old X    -DE/DX   Delta X   Delta X   Delta X     New X
                                 (Linear)    (Quad)   (Total)
    d1        2.45664   0.04119   0.00000   0.07764   0.07764   2.53428
    d2        2.45664   0.15688   0.00000   0.08826   0.08826   2.54490
    d3        2.45664   0.22139   0.00000   0.09184   0.09184   2.54848
    d4        2.45664   0.18021   0.00000   0.09671   0.09671   2.55335
    d5        2.45664   0.07452   0.00000   0.09290   0.09290   2.54954
    d6        2.64562  -0.01186   0.00000  -0.02806  -0.02806   2.61755
    d7        1.88973   0.07222   0.00000   0.07646   0.07646   1.96619
    d8        1.88973   0.07375   0.00000   0.07830   0.07830   1.96803
    d9        1.88973   0.07418   0.00000   0.07865   0.07865   1.96837
   d10        1.88973   0.07375   0.00000   0.07835   0.07835   1.96808
   d11        1.88973   0.07222   0.00000   0.07592   0.07592   1.96565
   d12        5.29123   0.00046   0.00000   0.00162   0.00162   5.29285
   d13        2.26767   0.01909   0.00000   0.00814   0.00814   2.27581
   d14        1.88973   0.08465   0.00000   0.09053   0.09053   1.98025
   d15        1.88973   0.08463   0.00000   0.09050   0.09050   1.98022
   d16        4.34637  -0.00180   0.00000  -0.00885  -0.00885   4.33752
   d17        2.64562   0.01262   0.00000   0.02207   0.02207   2.66769
   d18        4.34637   0.00229   0.00000   0.01553   0.01553   4.36190
   d19        2.64562   0.01474   0.00000   0.02612   0.02612   2.67174
   d20        4.34637   0.00229   0.00000   0.01667   0.01667   4.36304
   d21        2.64562   0.01474   0.00000   0.02632   0.02632   2.67193
         Item               Value     Threshold  Converged?
 Maximum Force            0.221386     0.000450     NO 
 RMS     Force            0.086079     0.000300     NO 
 Maximum Displacement     0.096706     0.001800     NO 
 RMS     Displacement     0.065465     0.001200     NO 
 Predicted change in Energy=-7.220274D-02
 GradGradGradGradGradGradGradGradGradGradGradGradGradGradGradGradGradGrad

 ---------------------------------------------------------------------------------------------------
                            Z-MATRIX (ANGSTROMS AND DEGREES)
   CD    Cent   Atom    N1       Length/X        N2       Alpha/Y        N3        Beta/Z          J
 ---------------------------------------------------------------------------------------------------
      1      1  C 
      2      2  C        1   1.341084(     1)
      3      3  C        2   1.346703(     2)      1  120.000(    22)
      4      4  C        3   1.348599(     3)      2  120.000(    23)      1    0.000(    42)      0
      5      5  C        4   1.351174(     4)      3  120.000(    24)      2    0.000(    43)      0
      6      6  C        5   1.349159(     5)      4  120.000(    25)      3    0.000(    44)      0
      7      7  F        1   1.385149(     6)      2  120.000(    26)      3  180.000(    45)      0
      8      8  H        2   1.040463(     7)      3  120.000(    27)      4  180.000(    46)      0
      9      9  H        3   1.041437(     8)      4  120.000(    28)      5  180.000(    47)      0
     10     10  H        4   1.041618(     9)      5  120.000(    29)      6  180.000(    48)      0
     11     11  H        5   1.041462(    10)      6  120.000(    30)      1  180.000(    49)      0
     12     12  H        6   1.040176(    11)      1  120.000(    31)      2  180.000(    50)      0
     13     13  O        7   2.800857(    12)      1  179.900(    32)      3  180.000(    51)      0
     14     14  C       13   1.204305(    13)      1  179.900(    33)      2  180.000(    52)      0
     15     15  H       14   1.047904(    14)      1  120.000(    34)      2   90.000(    53)      0
     16     16  H       14   1.047888(    15)      1  120.000(    35)      2  -90.000(    54)      0
     17     17  H        7   2.295315(    16)      1  100.000(    36)      2   90.000(    55)      0
     18     18  Br      17   1.411679(    17)      7  160.000(    37)      1    0.000(    56)      0
     19     19  H        7   2.308219(    18)      1  100.000(    38)      2  -30.000(    57)      0
     20     20  Br      19   1.413822(    19)      7  160.000(    39)      1    0.000(    58)      0
     21     21  H        7   2.308822(    20)      1  100.000(    40)      2 -150.000(    59)      0
     22     22  Br      21   1.413926(    21)      7  160.000(    41)      1    0.000(    60)      0
 ---------------------------------------------------------------------------------------------------
                         Z-Matrix orientation:                         
 ---------------------------------------------------------------------
 Center     Atomic      Atomic             Coordinates (Angstroms)
 Number     Number       Type             X           Y           Z
 ---------------------------------------------------------------------
      1          6           0        0.000000    0.000000    0.000000
      2          6           0        0.000000    0.000000    1.341084
      3          6           0        1.166279    0.000000    2.014436
      4          6           0        2.334200    0.000000    1.340136
      5          6           0        2.334200    0.000000   -0.011038
      6          6           0        1.165794    0.000000   -0.685618
      7          9           0       -1.199575   -0.000000   -0.692575
      8          1           0       -0.901067   -0.000000    1.861315
      9          1           0        1.166279   -0.000000    3.055873
     10          1           0        3.236268   -0.000000    1.860946
     11          1           0        3.236133   -0.000000   -0.531769
     12          1           0        1.157438   -0.000000   -1.725760
     13          8           0       -3.622740   -0.000000   -2.097235
     14          6           0       -4.663940   -0.000000   -2.702423
     15          1           0       -5.117287    0.907512   -2.965105
     16          1           0       -5.117280   -0.907498   -2.965101
     17          1           0       -1.544753    2.260444   -0.891863
     18         35           0       -1.332459    3.650676   -0.769296
     19          1           0       -2.530997   -1.136576    0.811880
     20         35           0       -2.921283   -1.832748    1.978891
     21          1           0       -0.562223   -1.136873   -2.598345
     22         35           0        0.253355   -1.833095   -3.519916
 ---------------------------------------------------------------------
                    Distance matrix (angstroms):
                    1          2          3          4          5
     1  C    0.000000
     2  C    1.341084   0.000000
     3  C    2.327694   1.346703   0.000000
     4  C    2.691553   2.334200   1.348599   0.000000
     5  C    2.334226   2.697541   2.338073   1.351174   0.000000
     6  C    1.352460   2.338075   2.700054   2.338558   1.349159
     7  F    1.385149   2.361090   3.595160   4.076700   3.598897
     8  H    2.067950   1.040463   2.073009   3.276978   3.738002
     9  H    3.270866   2.073815   1.041437   2.075521   3.281765
    10  H    3.733169   3.277757   2.075672   1.041618   2.077992
    11  H    3.279533   3.739002   3.281380   2.077863   1.041462
    12  H    2.077958   3.277987   3.740207   3.283975   2.079674
    13  O    4.186005   4.994625   6.311936   6.877547   6.311684
    14  C    5.390309   6.172705   7.499348   8.081847   7.497835
    15  H    5.983482   6.749331   8.068619   8.653517   8.066893
    16  H    5.983472   6.749322   8.068610   8.653507   8.066883
    17  H    2.879460   3.532977   4.572295   5.013752   4.575122
    18  Br   3.961654   4.422283   5.226882   5.587623   5.229415
    19  H    2.890830   2.824501   4.050654   5.024043   5.063511
    20  Br   3.976037   3.507087   4.479776   5.602417   5.910913
    21  H    2.891362   4.138560   5.055487   5.019302   4.046716
    22  Br   3.976712   5.201322   5.901078   5.595558   4.472403
                    6          7          8          9         10
     6  C    0.000000
     7  F    2.365379   0.000000
     8  H    3.280058   2.571276   0.000000
     9  H    3.741490   4.432620   2.387653   0.000000
    10  H    3.282049   5.118317   4.137335   2.390126   0.000000
    11  H    2.076047   4.438621   4.779464   4.141916   2.392715
    12  H    1.040176   2.573515   4.135765   4.781641   4.145600
    13  O    4.992266   2.800857   4.803917   7.034857   7.919166
    14  C    6.168736   4.005161   5.914974   8.194475   9.123466
    15  H    6.745128   4.619139   6.472591   8.749798   9.690007
    16  H    6.745118   4.619128   6.472581   8.749789   9.689998
    17  H    3.535422   2.295315   3.619935   5.295651   5.962024
    18  Br   4.424444   3.653900   4.520360   5.848337   6.412400
    19  H    4.147357   2.308219   2.247174   4.471818   5.971071
    20  Br   5.211792   3.668784   2.730213   4.607279   6.425599
    21  H    2.817277   2.308822   4.614745   6.020829   5.967101
    22  Br   3.496575   3.669483   5.800913   6.887283   6.419633
                   11         12         13         14         15
    11  H    0.000000
    12  H    2.397205   0.000000
    13  O    7.035256   4.794590   0.000000
    14  C    8.192856   5.902737   1.204305   0.000000
    15  H    8.747819   6.460010   1.952037   1.047904   0.000000
    16  H    8.747810   6.460000   1.952024   1.047888   1.815009
    17  H    5.300580   3.620335   3.298569   4.256414   4.346466
    18  Br   5.852853   4.521266   4.509573   5.306900   5.164442
    19  H    6.029676   4.619088   3.308573   4.265159   5.013264
    20  Br   6.897547   5.806838   4.523915   5.320763   6.064203
    21  H    4.471099   2.238553   3.303083   4.257628   5.006259
    22  Br   4.602850   2.719669   4.517563   5.311151   6.054960
                   16         17         18         19         20
    16  H    0.000000
    17  H    5.205490   0.000000
    18  Br   6.318495   1.411679   0.000000
    19  H    4.583332   3.926215   5.182123   0.000000
    20  Br   5.488311   5.185585   6.335995   1.413822   0.000000
    21  H    4.575551   3.926730   5.182597   3.937729   5.196201
    22  Br   5.477981   5.186224   6.336598   5.196366   6.349426
                   21         22
    21  H    0.000000
    22  Br   1.413926   0.000000
 Stoichiometry    C7H10Br3FO
 Framework group  C1[X(C7H10Br3FO)]
 Deg. of freedom    60
 Full point group                 C1      NOp   1
 Largest Abelian subgroup         C1      NOp   1
 Largest concise Abelian subgroup C1      NOp   1
                         Standard orientation:                         
 ---------------------------------------------------------------------
 Center     Atomic      Atomic             Coordinates (Angstroms)
 Number     Number       Type             X           Y           Z
 ---------------------------------------------------------------------
      1          6           0       -0.001064    0.006568    1.147666
      2          6           0       -1.161805    0.006876    1.819372
      3          6           0       -1.160458    0.010919    3.166069
      4          6           0        0.008136    0.014658    3.839191
      5          6           0        1.177610    0.014347    3.162432
      6          6           0        1.176260    0.010296    1.813280
      7          9           0       -0.002449    0.002409   -0.237476
      8          1           0       -2.063391    0.003992    1.300048
      9          1           0       -2.061846    0.011159    3.687690
     10          1           0        0.009178    0.017785    4.880805
     11          1           0        2.080062    0.017234    3.682254
     12          1           0        2.072343    0.010029    1.285073
     13          8           0       -0.000362   -0.005992   -3.038320
     14          6           0        0.001941   -0.009602   -4.242617
     15          1           0        0.000899    0.896332   -4.769290
     16          1           0        0.003568   -0.918667   -4.763836
     17          1           0       -0.006172    2.261644   -0.642834
     18         35           0       -0.007971    3.652605   -0.401872
     19          1           0       -1.969783   -1.138253   -0.632904
     20         35           0       -3.174317   -1.835453   -0.384097
     21          1           0        1.967940   -1.132771   -0.636964
     22         35           0        3.175100   -1.826483   -0.390561
 ---------------------------------------------------------------------
 Rotational constants (GHZ):           0.1939295           0.1874537           0.1544111
 Standard basis: 6-311++G(d,p) (5D, 7F)
 There are   430 symmetry adapted cartesian basis functions of A   symmetry.
 There are   412 symmetry adapted basis functions of A   symmetry.
   412 basis functions,   696 primitive gaussians,   430 cartesian basis functions
    87 alpha electrons       87 beta electrons
       nuclear repulsion energy      1587.8369240049 Hartrees.
 NAtoms=   22 NActive=   22 NUniq=   22 SFac= 1.00D+00 NAtFMM=   60 NAOKFM=F Big=F
 Integral buffers will be    131072 words long.
 Raffenetti 2 integral format.
 Two-electron integral symmetry is turned on.
 Force inversion solution in PCM.
 ------------------------------------------------------------------------------
 Polarizable Continuum Model (PCM)
 =================================
 Model                : PCM.
 Atomic radii         : UFF (Universal Force Field).
 Polarization charges : Total charges.
 Charge compensation  : None.
 Solution method      : Matrix inversion.
 Cavity type          : Scaled VdW (van der Waals Surface) (Alpha=1.100).
 Cavity algorithm     : GePol (No added spheres)
                        Default sphere list used, NSphG=   22.
                        Lebedev-Laikov grids with approx.  5.0 points / Ang**2.
                        Smoothing algorithm: York/Karplus (Gamma=1.0000).
                        Polarization charges: spherical gaussians, with
                                              point-specific exponents (IZeta= 3).
                        Self-potential: point-specific (ISelfS= 7).
                        Self-field    : sphere-specific E.n sum rule (ISelfD= 2).
 1st derivatives      : Analytical E(r).r(x)/FMM algorithm (CHGder, D1EAlg=3).
                        Cavity 1st derivative terms included.
 Solvent              : Chloroform, Eps=   4.711300 Eps(inf)=   2.090627
 ------------------------------------------------------------------------------
 One-electron integrals computed using PRISM.
 NBasis=   412 RedAO= T EigKep=  4.27D-06  NBF=   412
 NBsUse=   411 1.00D-06 EigRej=  5.26D-07 NBFU=   411
 Initial guess from the checkpoint file:  "model_H3.chk"
 B after Tr=     0.000000    0.000000   -0.000000
         Rot=    0.999997    0.001487   -0.001807   -0.000733 Ang=   0.28 deg.
 ExpMin= 3.50D-02 ExpMax= 4.40D+05 ExpMxC= 1.51D+04 IAcc=3 IRadAn=         5 AccDes= 0.00D+00
 Harris functional with IExCor= 1009 and IRadAn=       5 diagonalized for initial guess.
 HarFok:  IExCor= 1009 AccDes= 0.00D+00 IRadAn=         5 IDoV= 1 UseB2=F ITyADJ=14
 ICtDFT=  3500011 ScaDFX=  1.000000  1.000000  1.000000  1.000000
 FoFCou: FMM=F IPFlag=           0 FMFlag=      100000 FMFlg1=           0
         NFxFlg=           0 DoJE=T BraDBF=F KetDBF=T FulRan=T
         wScrn=  0.000000 ICntrl=       500 IOpCl=  0 I1Cent=   200000004 NGrid=           0
         NMat0=    1 NMatS0=      1 NMatT0=    0 NMatD0=    1 NMtDS0=    0 NMtDT0=    0
 Petite list used in FoFCou.
 Requested convergence on RMS density matrix=1.00D-08 within 128 cycles.
 Requested convergence on MAX density matrix=1.00D-06.
 Requested convergence on             energy=1.00D-06.
 No special actions if energy rises.
 Inv3:  Mode=1 IEnd=    20766483.
 Iteration    1 A*A^-1 deviation from unit magnitude is 7.55D-15 for   2616.
 Iteration    1 A*A^-1 deviation from orthogonality  is 2.20D-15 for   2626   2463.
 Iteration    1 A^-1*A deviation from unit magnitude is 7.11D-15 for   2616.
 Iteration    1 A^-1*A deviation from orthogonality  is 2.02D-15 for   2606   2604.
 Error on total polarization charges =  0.01913
 SCF Done:  E(RM062X) =  -8170.22522351     A.U. after   14 cycles
            NFock= 14  Conv=0.86D-09     -V/T= 2.0012
 DoSCS=F DFT=T ScalE2(SS,OS)=  1.000000  1.000000
 Range of M.O.s used for correlation:     1   411
 NBasis=   412 NAE=    87 NBE=    87 NFC=     0 NFV=     0
 NROrb=    411 NOA=    87 NOB=    87 NVA=   324 NVB=   324

 **** Warning!!: The largest alpha MO coefficient is  0.14791519D+03

 Symmetrizing basis deriv contribution to polar:
 IMax=3 JMax=2 DiffMx= 0.00D+00
 D1PCM: PCM CHGder 1st derivatives, ID1Alg=3 FixD1E=F DoIter=F DoCFld=F I1PDM=0.
 Calling FoFJK, ICntrl=      2127 FMM=F ISym2X=0 I1Cent= 0 IOpClX= 0 NMat=1 NMatS=1 NMatT=0.
 ***** Axes restored to original set *****
 -------------------------------------------------------------------
 Center     Atomic                   Forces (Hartrees/Bohr)
 Number     Number              X              Y              Z
 -------------------------------------------------------------------
      1        6          -0.022730450    0.000093097   -0.024639403
      2        6          -0.027471169    0.001396142    0.008330196
      3        6           0.005640741    0.000112682    0.011188205
      4        6           0.014226366   -0.000344319    0.006755471
      5        6           0.009008011    0.000115486   -0.002127225
      6        6          -0.011777608    0.001466876   -0.018897455
      7        9           0.014432532    0.000048346    0.008775637
      8        1          -0.027311266    0.002163298    0.016411771
      9        1          -0.001568550    0.000079313    0.032658556
     10        1           0.028516385    0.000000576    0.016353212
     11        1           0.027508555    0.000084494   -0.017682571
     12        1           0.000713108    0.002258693   -0.031740374
     13        8           0.004593643   -0.000037800    0.002597646
     14        6           0.034562733    0.000002004    0.020239318
     15        1          -0.019722393    0.031363784   -0.011504351
     16        1          -0.019718750   -0.031349138   -0.011503709
     17        1          -0.001705447   -0.007763751   -0.000978105
     18       35           0.001292611    0.006009506    0.000739229
     19        1           0.000107369    0.002133784   -0.006333192
     20       35          -0.004573958   -0.004905948    0.004406027
     21        1          -0.005438473    0.002079859    0.003180582
     22       35           0.001416011   -0.005006985   -0.006229464
 -------------------------------------------------------------------
 Cartesian Forces:  Max     0.034562733 RMS     0.014269283
 -----------------------------------------------------------------------------------------------
                       Internal Coordinate Forces (Hartree/Bohr or radian)
  Cent   Atom   N1       Length/X         N2         Alpha/Y        N3         Beta/Z          J
 -----------------------------------------------------------------------------------------------
      1  C 
      2  C        1   0.021892(     1)
      3  C        2   0.061487(     2)      1   0.047047(    22)
      4  C        3   0.082734(     3)      2   0.146862(    23)      1   0.012982(    42)     0
      5  C        4   0.069806(     4)      3   0.159460(    24)      2   0.016984(    43)     0
      6  C        5   0.034253(     5)      4   0.093697(    25)      3   0.008331(    44)     0
      7  F        1  -0.006238(     6)      2  -0.001701(    26)      3   0.004224(    45)     0
      8  H        2   0.031858(     7)      3  -0.001096(    27)      4   0.003684(    46)     0
      9  H        3   0.032659(     8)      4   0.003087(    28)      5   0.000135(    47)     0
     10  H        4   0.032873(     9)      5  -0.000189(    29)      6   0.000001(    48)     0
     11  H        5   0.032664(    10)      6  -0.003069(    30)      1   0.000144(    49)     0
     12  H        6   0.031734(    11)      1   0.001903(    31)      2   0.003845(    50)     0
     13  O        7   0.000332(    12)      1  -0.000028(    32)      3   0.000000(    51)     0
     14  C       13   0.005609(    13)      1   0.000102(    33)      2  -0.000000(    52)     0
     15  H       14   0.038578(    14)      1   0.008102(    34)      2   0.000114(    53)     0
     16  H       14   0.038564(    15)      1   0.008111(    35)      2  -0.000116(    54)     0
     17  H        7  -0.001645(    16)      1   0.002231(    36)      2   0.000018(    55)     0
     18  Br      17   0.006177(    17)      7  -0.001128(    37)      1   0.000006(    56)     0
     19  H        7   0.002685(    18)      1   0.027551(    38)      2  -0.012251(    57)     0
     20  Br      19   0.007315(    19)      7   0.008216(    39)      1  -0.001094(    58)     0
     21  H        7   0.002848(    20)      1   0.028579(    40)      2   0.012921(    59)     0
     22  Br      21   0.007342(    21)      7   0.008583(    41)      1   0.001174(    60)     0
 -----------------------------------------------------------------------------------------------
 Internal  Forces:  Max     0.159460330 RMS     0.037938289

 GradGradGradGradGradGradGradGradGradGradGradGradGradGradGradGradGradGrad
 Berny optimization.
 Search for a local minimum.
 Step number   2 out of a maximum of   31
 All quantities printed in internal units (Hartrees-Bohrs-Radians)
 Update second derivatives using D2CorN and points    1    2
 DE= -7.48D-02 DEPred=-7.22D-02 R= 1.04D+00
 TightC=F SS=  1.41D+00  RLast= 3.00D-01 DXNew= 5.0454D-01 9.0000D-01
 Trust test= 1.04D+00 RLast= 3.00D-01 DXMaxT set to 5.05D-01
 ITU=  1  0
     Eigenvalues ---    0.00117   0.00349   0.00790   0.00805   0.29651
     Eigenvalues ---    0.29817   0.29875   0.31452   0.53686   0.57297
     Eigenvalues ---    0.57303   0.57368   0.57420   0.57543   0.57722
     Eigenvalues ---    0.58256   0.76920   0.78759   0.96304   1.12957
     Eigenvalues ---    2.17297
 RFO step:  Lambda=-6.74764678D-03 EMin= 1.17136176D-03
 Quartic linear search produced a step of  0.92454.
 Maximum step size (   0.505) exceeded in Quadratic search.
    -- Step size scaled by   0.790
 Variable       Old X    -DE/DX   Delta X   Delta X   Delta X     New X
                                 (Linear)    (Quad)   (Total)
    d1        2.53428   0.02189   0.07178   0.00705   0.07883   2.61311
    d2        2.54490   0.06149   0.08160  -0.00623   0.07536   2.62026
    d3        2.54848   0.08273   0.08491  -0.00873   0.07618   2.62466
    d4        2.55335   0.06981   0.08941  -0.00742   0.08199   2.63534
    d5        2.54954   0.03425   0.08589   0.00406   0.08995   2.63949
    d6        2.61755  -0.00624  -0.02595  -0.02621  -0.05215   2.56540
    d7        1.96619   0.03186   0.07069   0.00967   0.08036   2.04655
    d8        1.96803   0.03266   0.07239   0.00828   0.08068   2.04871
    d9        1.96837   0.03287   0.07271   0.00833   0.08104   2.04941
   d10        1.96808   0.03266   0.07244   0.00816   0.08060   2.04868
   d11        1.96565   0.03173   0.07019   0.00960   0.07979   2.04544
   d12        5.29285   0.00033   0.00150   0.04315   0.04465   5.33750
   d13        2.27581   0.00561   0.00752  -0.00558   0.00194   2.27775
   d14        1.98025   0.03858   0.08369   0.01277   0.09646   2.07671
   d15        1.98022   0.03856   0.08367   0.01277   0.09644   2.07666
   d16        4.33752  -0.00164  -0.00819  -0.26699  -0.27518   4.06234
   d17        2.66769   0.00618   0.02040   0.01004   0.03044   2.69813
   d18        4.36190   0.00269   0.01436   0.28781   0.30217   4.66408
   d19        2.67174   0.00732   0.02415   0.00562   0.02977   2.70151
   d20        4.36304   0.00285   0.01541   0.31104   0.32645   4.68949
   d21        2.67193   0.00734   0.02433   0.00531   0.02964   2.70157
         Item               Value     Threshold  Converged?
 Maximum Force            0.082734     0.000450     NO 
 RMS     Force            0.034912     0.000300     NO 
 Maximum Displacement     0.326450     0.001800     NO 
 RMS     Displacement     0.131750     0.001200     NO 
 Predicted change in Energy=-1.745100D-02
 GradGradGradGradGradGradGradGradGradGradGradGradGradGradGradGradGradGrad

 ---------------------------------------------------------------------------------------------------
                            Z-MATRIX (ANGSTROMS AND DEGREES)
   CD    Cent   Atom    N1       Length/X        N2       Alpha/Y        N3        Beta/Z          J
 ---------------------------------------------------------------------------------------------------
      1      1  C 
      2      2  C        1   1.382797(     1)
      3      3  C        2   1.386584(     2)      1  120.000(    22)
      4      4  C        3   1.388909(     3)      2  120.000(    23)      1    0.000(    42)      0
      5      5  C        4   1.394560(     4)      3  120.000(    24)      2    0.000(    43)      0
      6      6  C        5   1.396757(     5)      4  120.000(    25)      3    0.000(    44)      0
      7      7  F        1   1.357552(     6)      2  120.000(    26)      3  180.000(    45)      0
      8      8  H        2   1.082988(     7)      3  120.000(    27)      4  180.000(    46)      0
      9      9  H        3   1.084129(     8)      4  120.000(    28)      5  180.000(    47)      0
     10     10  H        4   1.084502(     9)      5  120.000(    29)      6  180.000(    48)      0
     11     11  H        5   1.084115(    10)      6  120.000(    30)      1  180.000(    49)      0
     12     12  H        6   1.082399(    11)      1  120.000(    31)      2  180.000(    50)      0
     13     13  O        7   2.824484(    12)      1  179.900(    32)      3  180.000(    51)      0
     14     14  C       13   1.205332(    13)      1  179.900(    33)      2  180.000(    52)      0
     15     15  H       14   1.098948(    14)      1  120.000(    34)      2   90.000(    53)      0
     16     16  H       14   1.098921(    15)      1  120.000(    35)      2  -90.000(    54)      0
     17     17  H        7   2.149698(    16)      1  100.000(    36)      2   90.000(    55)      0
     18     18  Br      17   1.427789(    17)      7  160.000(    37)      1    0.000(    56)      0
     19     19  H        7   2.468122(    18)      1  100.000(    38)      2  -30.000(    57)      0
     20     20  Br      19   1.429576(    19)      7  160.000(    39)      1    0.000(    58)      0
     21     21  H        7   2.481572(    20)      1  100.000(    40)      2 -150.000(    59)      0
     22     22  Br      21   1.429611(    21)      7  160.000(    41)      1    0.000(    60)      0
 ---------------------------------------------------------------------------------------------------
                         Z-Matrix orientation:                         
 ---------------------------------------------------------------------
 Center     Atomic      Atomic             Coordinates (Angstroms)
 Number     Number       Type             X           Y           Z
 ---------------------------------------------------------------------
      1          6           0        0.000000    0.000000    0.000000
      2          6           0        0.000000    0.000000    1.382797
      3          6           0        1.200817    0.000000    2.076089
      4          6           0        2.403648    0.000000    1.381635
      5          6           0        2.403648    0.000000   -0.012926
      6          6           0        1.194021    0.000000   -0.711304
      7          9           0       -1.175674   -0.000000   -0.678776
      8          1           0       -0.937895   -0.000000    1.924291
      9          1           0        1.200817   -0.000000    3.160218
     10          1           0        3.342854   -0.000000    1.923885
     11          1           0        3.342519   -0.000000   -0.554983
     12          1           0        1.179226   -0.000000   -1.793602
     13          8           0       -3.619280   -0.000000   -2.095285
     14          6           0       -4.661361   -0.000000   -2.701000
     15          1           0       -5.136788    0.951717   -2.976484
     16          1           0       -5.136777   -0.951694   -2.976477
     17          1           0       -1.498954    2.117039   -0.865421
     18         35           0       -1.284237    3.523136   -0.741455
     19          1           0       -2.599332   -1.215313    0.929901
     20         35           0       -2.993967   -1.919242    2.109916
     21          1           0       -0.490635   -1.221936   -2.727140
     22         35           0        0.333990   -1.925882   -3.658934
 ---------------------------------------------------------------------
                    Distance matrix (angstroms):
                    1          2          3          4          5
     1  C    0.000000
     2  C    1.382797   0.000000
     3  C    2.398355   1.386584   0.000000
     4  C    2.772442   2.403648   1.388909   0.000000
[...]
 Alpha virt. eigenvalues --    0.49904   0.50025   0.51510   0.51648   0.52662
 Alpha virt. eigenvalues --    0.53109   0.55217   0.56502   0.56881   0.57967
 Alpha virt. eigenvalues --    0.58285   0.59306   0.59615   0.60263   0.61504
 Alpha virt. eigenvalues --    0.61801   0.62568   0.63373   0.63413   0.64392
 Alpha virt. eigenvalues --    0.64828   0.65340   0.66628   0.66945   0.66991
 Alpha virt. eigenvalues --    0.67757   0.68399   0.68934   0.69729   0.70336
 Alpha virt. eigenvalues --    0.70593   0.71500   0.72369   0.72661   0.73540
 Alpha virt. eigenvalues --    0.74734   0.75046   0.76976   0.77418   0.79060
 Alpha virt. eigenvalues --    0.81734   0.82415   0.83658   0.84542   0.88156
 Alpha virt. eigenvalues --    0.88251   0.89282   0.91663   0.93210   0.93571
 Alpha virt. eigenvalues --    0.94901   0.95704   0.95787   0.96041   1.00819
 Alpha virt. eigenvalues --    1.03791   1.04597   1.05423   1.06118   1.06512
 Alpha virt. eigenvalues --    1.09775   1.12485   1.15321   1.16864   1.18073
 Alpha virt. eigenvalues --    1.19358   1.22590   1.23812   1.31029   1.33779
 Alpha virt. eigenvalues --    1.40063   1.44341   1.45002   1.45494   1.46375
 Alpha virt. eigenvalues --    1.47207   1.47541   1.48753   1.50417   1.51456
 Alpha virt. eigenvalues --    1.53185   1.54893   1.56237   1.59499   1.60236
 Alpha virt. eigenvalues --    1.60690   1.61014   1.64654   1.65029   1.68486
 Alpha virt. eigenvalues --    1.68818   1.69594   1.71156   1.73031   1.77028
 Alpha virt. eigenvalues --    1.77630   1.77787   1.80019   1.86224   1.86842
 Alpha virt. eigenvalues --    1.89871   1.91678   1.94569   1.94824   1.96169
 Alpha virt. eigenvalues --    1.97712   1.98859   1.99832   2.01901   2.02504
 Alpha virt. eigenvalues --    2.02662   2.03569   2.03928   2.04306   2.04943
 Alpha virt. eigenvalues --    2.06031   2.06435   2.07008   2.07537   2.08017
 Alpha virt. eigenvalues --    2.09268   2.11200   2.11883   2.12781   2.17383
 Alpha virt. eigenvalues --    2.20465   2.30771   2.30828   2.35039   2.44070
 Alpha virt. eigenvalues --    2.44622   2.47699   2.49034   2.51430   2.52624
 Alpha virt. eigenvalues --    2.52897   2.58420   2.58891   2.62891   2.65307
 Alpha virt. eigenvalues --    2.67636   2.69717   2.72118   2.73210   2.73812
 Alpha virt. eigenvalues --    2.74402   2.75644   2.76125   2.76563   2.85258
 Alpha virt. eigenvalues --    2.85629   2.86641   2.89011   2.94378   2.94984
 Alpha virt. eigenvalues --    2.95651   2.98274   2.98552   3.14064   3.18937
 Alpha virt. eigenvalues --    3.25470   3.39057   3.39536   3.42714   3.48446
 Alpha virt. eigenvalues --    3.53185   3.55665   3.56464   3.66214   3.74145
 Alpha virt. eigenvalues --    3.78799   3.86618   3.93194   3.99893   4.02648
 Alpha virt. eigenvalues --    4.05379   4.08737   4.15948   4.19095   4.19797
 Alpha virt. eigenvalues --    4.27823   4.27969   4.28006   4.28244   4.28764
 Alpha virt. eigenvalues --    4.28956   4.32213   4.32242   4.33895   4.34195
 Alpha virt. eigenvalues --    4.34401   4.35669   4.48348   4.48567   4.51328
 Alpha virt. eigenvalues --    4.85750   4.94190   5.11124   5.21339   5.79221
 Alpha virt. eigenvalues --    6.52033   6.62396   6.79494   6.79878   6.85893
 Alpha virt. eigenvalues --    6.91273   7.61894   7.62714   7.64143   7.64602
 Alpha virt. eigenvalues --    7.64666   7.65327   7.66442   7.66951   7.67572
 Alpha virt. eigenvalues --   23.67644  23.99975  24.01270  24.05105  24.15333
 Alpha virt. eigenvalues --   24.16933  24.27126  48.32441  48.33212  48.38352
 Alpha virt. eigenvalues --   50.04582  66.94151 290.76433 290.77329 290.78998
 Alpha virt. eigenvalues --  290.79314 290.79497 290.80520 290.83202 290.84040
 Alpha virt. eigenvalues --  290.847841020.873991020.882801020.94723
          Condensed to atoms (all electrons):
               1          2          3          4          5          6
     1  C   11.668840  -0.971594  -1.725301  -0.544724  -1.503443  -0.665295
     2  C   -0.971594  12.791267   0.572756  -0.813784   0.014089  -5.772563
     3  C   -1.725301   0.572756   6.860490   0.752794  -0.444724  -0.159873
     4  C   -0.544724  -0.813784   0.752794   6.483251   0.683769  -0.673603
     5  C   -1.503443   0.014089  -0.444724   0.683769   6.726160   0.395069
     6  C   -0.665295  -5.772563  -0.159873  -0.673603   0.395069  12.683647
     7  F    0.418826  -0.210777  -0.013086   0.015879  -0.010024  -0.203074
     8  H   -0.376285   0.448896   0.138971   0.066221   0.058689  -0.123374
     9  H    0.042846  -0.002254   0.365656  -0.106844  -0.019074   0.045666
    10  H    0.030675  -0.008710  -0.062127   0.441218  -0.060859  -0.006003
    11  H    0.042502   0.048880  -0.019157  -0.108396   0.370785  -0.009339
    12  H   -0.358023  -0.133974   0.054491   0.068334   0.113926   0.463133
    13  O    0.019233  -0.007285  -0.000286  -0.000228  -0.000221  -0.007225
    14  C   -0.003564   0.000984   0.000316   0.000233   0.000348   0.001652
    15  H    0.001142  -0.000391  -0.000099  -0.000042  -0.000103  -0.000500
    16  H   -0.001638   0.000544   0.000115   0.000013   0.000114   0.000591
    17  H   -0.067664   0.018773   0.002838  -0.010955   0.000754   0.013584
    18  Br   0.223566  -0.065473  -0.025875   0.013047  -0.022199  -0.060807
    19  H   -0.076842   0.142771   0.002818   0.005470  -0.001873  -0.096927
    20  Br   0.009997  -0.184094   0.076770   0.007984   0.009097   0.046281
    21  H   -0.072278  -0.096371  -0.003392   0.006345  -0.001260   0.141271
    22  Br   0.011600   0.046518   0.010009   0.006899   0.071722  -0.181721
               7          8          9         10         11         12
     1  C    0.418826  -0.376285   0.042846   0.030675   0.042502  -0.358023
     2  C   -0.210777   0.448896  -0.002254  -0.008710   0.048880  -0.133974
     3  C   -0.013086   0.138971   0.365656  -0.062127  -0.019157   0.054491
     4  C    0.015879   0.066221  -0.106844   0.441218  -0.108396   0.068334
     5  C   -0.010024   0.058689  -0.019074  -0.060859   0.370785   0.113926
     6  C   -0.203074  -0.123374   0.045666  -0.006003  -0.009339   0.463133
     7  F    9.171387   0.000057  -0.001195   0.000963  -0.001196  -0.000644
     8  H    0.000057   0.686405  -0.022575   0.000206   0.001688  -0.004912
     9  H   -0.001195  -0.022575   0.460664  -0.009144   0.001248   0.001626
    10  H    0.000963   0.000206  -0.009144   0.471003  -0.008992   0.000258
    11  H   -0.001196   0.001688   0.001248  -0.008992   0.460251  -0.022536
    12  H   -0.000644  -0.004912   0.001626   0.000258  -0.022536   0.692945
    13  O    0.006105   0.001364   0.000007  -0.000000   0.000008   0.001391
    14  C    0.002536   0.000276  -0.000027   0.000007  -0.000028   0.000288
    15  H   -0.000182  -0.000014   0.000003  -0.000001   0.000003  -0.000010
    16  H   -0.000242  -0.000055   0.000000  -0.000000   0.000000  -0.000060
    17  H   -0.020073   0.004190   0.001537  -0.000714   0.001588   0.004027
    18  Br  -0.001622  -0.001137  -0.001974   0.001087  -0.001991  -0.001242
    19  H   -0.024895  -0.000389   0.000207   0.000112  -0.000247   0.001688
    20  Br   0.009872   0.069170  -0.003656  -0.000250   0.000242  -0.002117
    21  H   -0.024168   0.001756  -0.000264   0.000126   0.000132   0.000302
    22  Br   0.009602  -0.002138   0.000257  -0.000253  -0.003628   0.070321
              13         14         15         16         17         18
     1  C    0.019233  -0.003564   0.001142  -0.001638  -0.067664   0.223566
     2  C   -0.007285   0.000984  -0.000391   0.000544   0.018773  -0.065473
     3  C   -0.000286   0.000316  -0.000099   0.000115   0.002838  -0.025875
     4  C   -0.000228   0.000233  -0.000042   0.000013  -0.010955   0.013047
     5  C   -0.000221   0.000348  -0.000103   0.000114   0.000754  -0.022199
     6  C   -0.007225   0.001652  -0.000500   0.000591   0.013584  -0.060807
     7  F    0.006105   0.002536  -0.000182  -0.000242  -0.020073  -0.001622
     8  H    0.001364   0.000276  -0.000014  -0.000055   0.004190  -0.001137
     9  H    0.000007  -0.000027   0.000003   0.000000   0.001537  -0.001974
    10  H   -0.000000   0.000007  -0.000001  -0.000000  -0.000714   0.001087
    11  H    0.000008  -0.000028   0.000003   0.000000   0.001588  -0.001991
    12  H    0.001391   0.000288  -0.000010  -0.000060   0.004027  -0.001242
    13  O    8.166417   0.258169  -0.083806  -0.088095   0.012133  -0.006257
    14  C    0.258169   4.916912   0.395909   0.398275  -0.003360   0.000521
    15  H   -0.083806   0.395909   0.667372  -0.109400   0.002308  -0.000472
    16  H   -0.088095   0.398275  -0.109400   0.667852  -0.000493   0.000229
    17  H    0.012133  -0.003360   0.002308  -0.000493   0.645456   0.221777
    18  Br  -0.006257   0.000521  -0.000472   0.000229   0.221777  34.868996
    19  H    0.005687   0.000898  -0.000195   0.000357   0.005123  -0.004377
    20  Br  -0.003311  -0.000624   0.000048  -0.000246  -0.002640   0.001838
    21  H    0.005717   0.000941  -0.000187   0.000337   0.005165  -0.004387
    22  Br  -0.003322  -0.000628   0.000045  -0.000239  -0.002714   0.001879
              19         20         21         22
     1  C   -0.076842   0.009997  -0.072278   0.011600
     2  C    0.142771  -0.184094  -0.096371   0.046518
     3  C    0.002818   0.076770  -0.003392   0.010009
     4  C    0.005470   0.007984   0.006345   0.006899
     5  C   -0.001873   0.009097  -0.001260   0.071722
     6  C   -0.096927   0.046281   0.141271  -0.181721
     7  F   -0.024895   0.009872  -0.024168   0.009602
     8  H   -0.000389   0.069170   0.001756  -0.002138
     9  H    0.000207  -0.003656  -0.000264   0.000257
    10  H    0.000112  -0.000250   0.000126  -0.000253
    11  H   -0.000247   0.000242   0.000132  -0.003628
    12  H    0.001688  -0.002117   0.000302   0.070321
    13  O    0.005687  -0.003311   0.005717  -0.003322
    14  C    0.000898  -0.000624   0.000941  -0.000628
    15  H   -0.000195   0.000048  -0.000187   0.000045
    16  H    0.000357  -0.000246   0.000337  -0.000239
    17  H    0.005123  -0.002640   0.005165  -0.002714
    18  Br  -0.004377   0.001838  -0.004387   0.001879
    19  H    0.639459   0.232453  -0.008699   0.004577
    20  Br   0.232453  34.866374   0.004575  -0.001956
    21  H   -0.008699   0.004575   0.639309   0.232965
    22  Br   0.004577  -0.001956   0.232965  34.865409
 Mulliken charges:
               1
     1  C   -0.102575
     2  C    0.181792
     3  C   -0.384103
     4  C   -0.292881
     5  C   -0.380741
     6  C    0.169410
     7  F   -0.124048
     8  H    0.052991
     9  H    0.247287
    10  H    0.211396
    11  H    0.248183
    12  H    0.050787
    13  O   -0.276195
    14  C    0.029966
    15  H    0.128573
    16  H    0.132041
    17  H    0.169360
    18  Br  -0.135124
    19  H    0.172823
    20  Br  -0.135804
    21  H    0.172064
    22  Br  -0.135204
 Sum of Mulliken charges =  -0.00000
 Mulliken charges with hydrogens summed into heavy atoms:
               1
     1  C   -0.102575
     2  C    0.234783
     3  C   -0.136816
     4  C   -0.081485
     5  C   -0.132558
     6  C    0.220198
     7  F   -0.124048
    13  O   -0.276195
    14  C    0.290580
    18  Br   0.034236
    20  Br   0.037019
    22  Br   0.036861
 APT charges:
               1
     1  C   -0.301953
     2  C   -0.441746
     3  C   -0.473814
     4  C   -0.786475
     5  C   -0.466773
     6  C   -0.456548
     7  F   -0.148995
     8  H    0.222368
     9  H    0.788341
    10  H    0.972494
    11  H    0.789363
    12  H    0.210145
    13  O   -0.912394
    14  C   -0.208952
    15  H    0.596140
    16  H    0.559338
    17  H   -0.252951
    18  Br   0.264543
    19  H   -0.327591
    20  Br   0.351236
    21  H   -0.328912
    22  Br   0.353137
 Sum of APT charges =   0.00000
 APT charges with hydrogens summed into heavy atoms:
               1
     1  C   -0.301953
     2  C   -0.219379
     3  C    0.314527
     4  C    0.186019
     5  C    0.322590
     6  C   -0.246404
     7  F   -0.148995
    13  O   -0.912394
    14  C    0.946527
    18  Br   0.011592
    20  Br   0.023644
    22  Br   0.024225
 Electronic spatial extent (au):  <R**2>=           8444.4778
 Charge=             -0.0000 electrons
 Dipole moment (field-independent basis, Debye):
    X=              0.0066    Y=             -0.4983    Z=             -1.0674  Tot=              1.1780
 Quadrupole moment (field-independent basis, Debye-Ang):
   XX=           -114.1838   YY=           -121.7358   ZZ=            -79.3660
   XY=              0.0755   XZ=             -0.2372   YZ=              8.2199
 Traceless Quadrupole moment (field-independent basis, Debye-Ang):
   XX=             -9.0886   YY=            -16.6406   ZZ=             25.7292
   XY=              0.0755   XZ=             -0.2372   YZ=              8.2199
 Octapole moment (field-independent basis, Debye-Ang**2):
  XXX=             -0.3317  YYY=            -28.4632  ZZZ=           -138.8729  XYY=              0.3870
  XXY=              5.6012  XXZ=              2.7290  XZZ=              0.0635  YZZ=            -13.9525
  YYZ=            -26.3839  XYZ=              0.3157
 Hexadecapole moment (field-independent basis, Debye-Ang**3):
 XXXX=          -3290.9943 YYYY=          -2552.8447 ZZZZ=          -2009.4590 XXXY=              0.3884
 XXXZ=              1.0471 YYYX=             -0.5641 YYYZ=            -96.8491 ZZZX=             -2.6974
 ZZZY=             95.9798 XXYY=           -986.9244 XXZZ=          -1003.2736 YYZZ=           -916.0180
 XXYZ=            -34.3570 YYXZ=              0.1610 ZZXY=              0.1740
 N-N= 1.507349809521D+03 E-N=-2.252394360369D+04  KE= 8.159532100041D+03
  Exact polarizability:   0.000   0.000   0.000   0.000   0.000   0.000
 Approx polarizability: 178.075   0.391 139.227  -0.349   8.681 182.391
 Rotating derivatives to standard orientation.
 ***** Axes restored to original set *****
 -------------------------------------------------------------------
 Center     Atomic                   Forces (Hartrees/Bohr)
 Number     Number              X              Y              Z
 -------------------------------------------------------------------
      1        6           0.015023952   -0.001111102   -0.000945993
      2        6          -0.015578297    0.000392271    0.003926186
      3        6           0.005212985    0.000049453    0.000389265
      4        6           0.004058128   -0.000096910   -0.003317514
      5        6          -0.006197461    0.000054620    0.002119148
      6        6          -0.000007650    0.000390480   -0.001252995
      7        9           0.002192128   -0.000285985    0.002912132
      8        1          -0.000478698    0.000853591   -0.000725990
      9        1          -0.001284830    0.000008439   -0.000001275
     10        1           0.000152518    0.000012835   -0.000269250
     11        1          -0.000665392   -0.000003232   -0.001148350
     12        1           0.000356853    0.000913002   -0.000059154
     13        8           0.000080804   -0.000139351   -0.000034044
     14        6           0.007400792    0.000035658    0.004500857
     15        1          -0.003679455   -0.002483573   -0.002206730
     16        1          -0.003720086    0.002504009   -0.002223881
     17        1          -0.000961896    0.000091307   -0.000550147
     18       35           0.000336672   -0.000114385    0.000171560
     19        1          -0.000700046   -0.000457368   -0.000963755
     20       35          -0.000147383   -0.000058812   -0.000137125
     21        1          -0.001270184   -0.000568989   -0.000178790
     22       35          -0.000123453    0.000014041   -0.000004156
 -------------------------------------------------------------------
 Cartesian Forces:  Max     0.015578297 RMS     0.003336213
 -----------------------------------------------------------------------------------------------
                       Internal Coordinate Forces (Hartree/Bohr or radian)
  Cent   Atom   N1       Length/X         N2         Alpha/Y        N3         Beta/Z          J
 -----------------------------------------------------------------------------------------------
      1  C 
      2  C        1  -0.000101(     1)
      3  C        2  -0.000119(     2)      1  -0.033622(    22)
      4  C        3  -0.000026(     3)      2  -0.025608(    23)      1   0.004372(    42)     0
      5  C        4   0.000102(     4)      3  -0.017029(    24)      2   0.005958(    43)     0
      6  C        5   0.000110(     5)      4   0.000390(    25)      3   0.002920(    44)     0
      7  F        1  -0.000130(     6)      2  -0.003482(    26)      3   0.000307(    45)     0
      8  H        2   0.000052(     7)      3   0.001777(    27)      4   0.001513(    46)     0
      9  H        3  -0.000001(     8)      4   0.002629(    28)      5   0.000015(    47)     0
     10  H        4  -0.000003(     9)      5  -0.000633(    29)      6   0.000023(    48)     0
     11  H        5  -0.000002(    10)      6  -0.002715(    30)      1  -0.000006(    49)     0
     12  H        6   0.000053(    11)      1   0.000732(    31)      2   0.001618(    50)     0
     13  O        7  -0.000089(    12)      1  -0.000053(    32)      3   0.000001(    51)     0
     14  C       13  -0.000036(    13)      1   0.000110(    33)      2  -0.000000(    52)     0
     15  H       14  -0.000006(    14)      1   0.010317(    34)      2   0.000116(    53)     0
     16  H       14  -0.000002(    15)      1   0.010417(    35)      2  -0.000106(    54)     0
     17  H        7   0.000104(    16)      1   0.001840(    36)      2   0.000112(    55)     0
     18  Br      17  -0.000047(    17)      7  -0.001054(    37)      1   0.000018(    56)     0
     19  H        7   0.000025(    18)      1   0.007288(    38)      2  -0.003848(    57)     0
     20  Br      19  -0.000044(    19)      7   0.000515(    39)      1  -0.000068(    58)     0
     21  H        7   0.000040(    20)      1   0.007151(    40)      2   0.003923(    59)     0
     22  Br      21  -0.000075(    21)      7   0.000262(    41)      1   0.000016(    60)     0
 -----------------------------------------------------------------------------------------------
 Internal  Forces:  Max     0.033621722 RMS     0.006492764
 1\1\GINC-R820\POpt\RM062X\6-311++G(d,p)\C7H10Br3F1O1\ZJXU\01-Apr-2024\
 1\\# m062x 6-311++G(d,p) opt=(recalc=5,z-matrix) scrf=(solvent=chlorof
 orm)\\test\\0,1\C\C,1,d1\C,2,d2,1,120.\C,3,d3,2,120.,1,0.,0\C,4,d4,3,1
 20.,2,0.,0\C,5,d5,4,120.,3,0.,0\F,1,d6,2,120.,3,180.,0\H,2,d7,3,120.,4
 ,180.,0\H,3,d8,4,120.,5,180.,0\H,4,d9,5,120.,6,180.,0\H,5,d10,6,120.,1
 ,180.,0\H,6,d11,1,120.,2,180.,0\O,7,d12,1,179.9,3,180.,0\C,13,d13,1,17
 9.9,2,180.,0\H,14,d14,1,120.,2,90.,0\H,14,d15,1,120.,2,-90.,0\H,7,d16,
 1,100.,2,90.,0\Br,17,d17,7,160.,1,0.,0\H,7,d18,1,100.,2,-30.,0\Br,19,d
 19,7,160.,1,0.,0\H,7,d20,1,100.,2,-150.,0\Br,21,d21,7,160.,1,0.,0\\d1=
 1.37979721\d2=1.38407241\d3=1.38759882\d4=1.39439689\d5=1.39742052\d6=
 1.35869467\d7=1.08320609\d8=1.0826429\d9=1.08297099\d10=1.08258225\d11
 =1.08254406\d12=3.15994766\d13=1.20345256\d14=1.10134641\d15=1.1013579
 3\d16=2.11632065\d17=1.42506817\d18=2.75771958\d19=1.42324516\d20=2.77
 964083\d21=1.42336653\\Version=ES64L-G16RevB.01\State=1-A\HF=-8170.247
 5867\RMSD=3.333e-09\RMSF=3.336e-03\Dipole=-0.3888354,-0.1146525,-0.224
 6327\Polar=0.,0.,0.,0.,0.,0.\Quadrupole=13.4342102,-13.5169555,0.08274
 53,-0.0453342,11.7517364,-0.0357755\PG=C01 [X(C7H10Br3F1O1)]\\@


 HONESTY IN A LAWYER IS LIKE A HEN'S HIND LEGS.
  -- MAGNUS OLESON, LAKE WOBEGON PATRIARCH, C.1875
 Job cpu time:       0 days 18 hours 25 minutes 15.7 seconds.
 Elapsed time:       0 days  4 hours 36 minutes 25.3 seconds.
 File lengths (MBytes):  RWF=    625 Int=      0 D2E=      0 Chk=     27 Scr=      1
 Normal termination of Gaussian 16 at Mon Apr  1 18:00:35 2024.
