 Entering Gaussian System, Link 0=g16
 Input=model_H2b.gjf
 Output=model_H2b.log
 Initial command:
 /home/lywu/software/g16/l1.exe "/home/lywu/software/g16/scr/Gau-93279.inp" -scrdir="/home/lywu/software/g16/scr/"
 Entering Link 1 = /home/lywu/software/g16/l1.exe PID=     93280.
  
 Copyright (c) 1988-2017, Gaussian, Inc.  All Rights Reserved.
  
 This is part of the Gaussian(R) 16 program.  It is based on
 the Gaussian(R) 09 system (copyright 2009, Gaussian, Inc.),
 the Gaussian(R) 03 system (copyright 2003, Gaussian, Inc.),
 the Gaussian(R) 98 system (copyright 1998, Gaussian, Inc.),
 the Gaussian(R) 94 system (copyright 1995, Gaussian, Inc.),
 the Gaussian 92(TM) system (copyright 1992, Gaussian, Inc.),
 the Gaussian 90(TM) system (copyright 1990, Gaussian, Inc.),
 the Gaussian 88(TM) system (copyright 1988, Gaussian, Inc.),
 the Gaussian 86(TM) system (copyright 1986, Carnegie Mellon
 University), and the Gaussian 82(TM) system (copyright 1983,
 Carnegie Mellon University). Gaussian is a federally registered
 trademark of Gaussian, Inc.
  
 This software contains proprietary and confidential information,
 including trade secrets, belonging to Gaussian, Inc.
  
 This software is provided under written license and may be
 used, copied, transmitted, or stored only in accord with that
 written license.
  
 The following legend is applicable only to US Government
 contracts under FAR:
  
                    RESTRICTED RIGHTS LEGEND
  
 Use, reproduction and disclosure by the US Government is
 subject to restrictions as set forth in subparagraphs (a)
 and (c) of the Commercial Computer Software - Restricted
 Rights clause in FAR 52.227-19.
  
 Gaussian, Inc.
 340 Quinnipiac St., Bldg. 40, Wallingford CT 06492
  
  
 ---------------------------------------------------------------
 Warning -- This program may not be used in any manner that
 competes with the business of Gaussian, Inc. or will provide
 assistance to any competitor of Gaussian, Inc.  The licensee
 of this program is prohibited from giving any competitor of
 Gaussian, Inc. access to this program.  By using this program,
 the user acknowledges that Gaussian, Inc. is engaged in the
 business of creating and licensing software in the field of
 computational chemistry and represents and warrants to the
 licensee that it is not a competitor of Gaussian, Inc. and that
 it will not use this program in any manner prohibited above.
 ---------------------------------------------------------------
  

 Cite this work as:
 Gaussian 16, Revision B.01,
 M. J. Frisch, G. W. Trucks, H. B. Schlegel, G. E. Scuseria, 
 M. A. Robb, J. R. Cheeseman, G. Scalmani, V. Barone, 
 G. A. Petersson, H. Nakatsuji, X. Li, M. Caricato, A. V. Marenich, 
 J. Bloino, B. G. Janesko, R. Gomperts, B. Mennucci, H. P. Hratchian, 
 J. V. Ortiz, A. F. Izmaylov, J. L. Sonnenberg, D. Williams-Young, 
 F. Ding, F. Lipparini, F. Egidi, J. Goings, B. Peng, A. Petrone, 
 T. Henderson, D. Ranasinghe, V. G. Zakrzewski, J. Gao, N. Rega, 
 G. Zheng, W. Liang, M. Hada, M. Ehara, K. Toyota, R. Fukuda, 
 J. Hasegawa, M. Ishida, T. Nakajima, Y. Honda, O. Kitao, H. Nakai, 
 T. Vreven, K. Throssell, J. A. Montgomery, Jr., J. E. Peralta, 
 F. Ogliaro, M. J. Bearpark, J. J. Heyd, E. N. Brothers, K. N. Kudin, 
 V. N. Staroverov, T. A. Keith, R. Kobayashi, J. Normand, 
 K. Raghavachari, A. P. Rendell, J. C. Burant, S. S. Iyengar, 
 J. Tomasi, M. Cossi, J. M. Millam, M. Klene, C. Adamo, R. Cammi, 
 J. W. Ochterski, R. L. Martin, K. Morokuma, O. Farkas, 
 J. B. Foresman, and D. J. Fox, Gaussian, Inc., Wallingford CT, 2016.
 
 ******************************************
 Gaussian 16:  ES64L-G16RevB.01 20-Dec-2017
                23-Mar-2024 
 ******************************************
 %mem=8GB
 %nprocshared=8
 Will use up to    8 processors via shared memory.
 %chk=model_H2b.chk
 -------------------------------------------------------
 # opt=z-matrix 6-311++g(d,p) m062x scrf=(solvent=water)
 -------------------------------------------------------
 1/10=7,18=40,26=3,38=1/1,3;
 2/12=2,17=6,18=5,29=3,40=1/2;
 3/5=4,6=6,7=1111,11=2,25=1,30=1,70=2201,71=1,72=1,74=-55/1,2,3;
 4//1;
 5/5=2,38=5,53=1/2;
 6/7=2,8=2,9=2,10=2,28=1/1;
 7/29=1/1,2,3,16;
 1/10=7,18=40,26=3/3(2);
 2/29=3/2;
 99//99;
 2/29=3/2;
 3/5=4,6=6,7=1111,11=2,25=1,30=1,70=2205,71=1,72=1,74=-55/1,2,3;
 4/5=5,16=3,69=1/1;
 5/5=2,38=5,53=1/2;
 7//1,2,3,16;
 1/18=40,26=3/3(-5);
 2/29=3/2;
 6/7=2,8=2,9=2,10=2,19=2,28=1/1;
 99/9=1/99;
 ----
 test
 ----
 Symbolic Z-matrix:
 Charge =  0 Multiplicity = 1
 C
 C                    1    B1
 C                    2    B2       1     120. 
 C                    3    B3       2     120.     1     0.       0
 C                    4    B4       3     120.     2     0.       0
 C                    1    B5       2     119.97771  3     1.71723  0
 F                    1    B6       2     120.     3    -180.     0
 H                    2    B7       1     120.     6    -178.28277  0
 H                    3    B8       2     120.     1     180.     0
 H                    4    B9       3     120.     2     180.     0
 H                    5    B10      4     120.     3     180.     0
 H                    6    B11      1     119.91553  2    -177.77152  0
 O                    1    B12      2     120.     3    -180.     0
 C                    13   B13      1     179.9    2     180.     0
 H                    14   B14      13    119.99997  1    -90.0449  0
 H                    14   B15      13    119.99997  1     90.0449  0
 H                    7    B16      1     100.     2     90.      0
 N                    17   B17      7     179.9    1     90.      0
 C                    18   B18      17    119.5    7     0.       0
 O                    19   B19      18    123.2    17   -180.     0
 C                    18   B20      17    121.9    19   -180.     0
 H                    21   B21      18    110.7    17   -180.     0
 H                    21   B22      18    110.7    17   -60.      0
 H                    21   B23      18    110.7    17    60.      0
 H                    19   B24      18    113.46722  17    0.       0
 H                    7    B25      1     100.     2    -90.      0
 N                    26   B26      7     179.9    1    -90.      0
 C                    27   B27      26    119.5    7     180.     0
 O                    28   B28      27    123.2    26   -180.     0
 C                    27   B29      26    121.9    28   -180.     0
 H                    30   B30      27    110.7    26    180.     0
 H                    30   B31      27    110.7    26   -60.      0
 H                    30   B32      27    110.7    26    60.      0
 H                    28   B33      27    113.46722  26    0.       0
       Variables:
  B1                    1.3                      
  B2                    1.3                      
  B3                    1.3                      
  B4                    1.3                      
  B5                    1.3                      
  B6                    1.4                      
  B7                    1.                       
  B8                    1.                       
  B9                    1.                       
  B10                   1.                       
  B11                   1.00101                  
  B12                   4.2                      
  B13                   1.2                      
  B14                   1.                       
  B15                   1.                       
  B16                   2.12                     
  B17                   1.                       
  B18                   1.33                     
  B19                   1.23                     
  B20                   1.45                     
  B21                   1.                       
  B22                   1.                       
  B23                   1.                       
  B24                   1.                       
  B25                   2.12                     
  B26                   1.                       
  B27                   1.33                     
  B28                   1.23                     
  B29                   1.45                     
  B30                   1.                       
  B31                   1.                       
  B32                   1.                       
  B33                   1.                       
 

 GradGradGradGradGradGradGradGradGradGradGradGradGradGradGradGradGradGrad
 Berny optimization.
 Initialization pass.
                       ----------------------------
                       !    Initial Parameters    !
                       ! (Angstroms and Degrees)  !
 ----------------------                            ----------------------
 !      Name          Value   Derivative information (Atomic Units)     !
 ------------------------------------------------------------------------
 !       B1          1.3      estimate D2E/DX2                          !
 !       B2          1.3      estimate D2E/DX2                          !
 !       B3          1.3      estimate D2E/DX2                          !
 !       B4          1.3      estimate D2E/DX2                          !
 !       B5          1.3      estimate D2E/DX2                          !
 !       B6          1.4      estimate D2E/DX2                          !
 !       B7          1.0      estimate D2E/DX2                          !
 !       B8          1.0      estimate D2E/DX2                          !
 !       B9          1.0      estimate D2E/DX2                          !
 !       B10         1.0      estimate D2E/DX2                          !
 !       B11         1.001    estimate D2E/DX2                          !
 !       B12         4.2      estimate D2E/DX2                          !
 !       B13         1.2      estimate D2E/DX2                          !
 !       B14         1.0      estimate D2E/DX2                          !
 !       B15         1.0      estimate D2E/DX2                          !
 !       B16         2.12     estimate D2E/DX2                          !
 !       B17         1.0      estimate D2E/DX2                          !
 !       B18         1.33     estimate D2E/DX2                          !
 !       B19         1.23     estimate D2E/DX2                          !
 !       B20         1.45     estimate D2E/DX2                          !
 !       B21         1.0      estimate D2E/DX2                          !
 !       B22         1.0      estimate D2E/DX2                          !
 !       B23         1.0      estimate D2E/DX2                          !
 !       B24         1.0      estimate D2E/DX2                          !
 !       B25         2.12     estimate D2E/DX2                          !
 !       B26         1.0      estimate D2E/DX2                          !
 !       B27         1.33     estimate D2E/DX2                          !
 !       B28         1.23     estimate D2E/DX2                          !
 !       B29         1.45     estimate D2E/DX2                          !
 !       B30         1.0      estimate D2E/DX2                          !
 !       B31         1.0      estimate D2E/DX2                          !
 !       B32         1.0      estimate D2E/DX2                          !
 !       B33         1.0      estimate D2E/DX2                          !
 ------------------------------------------------------------------------
 Trust Radius=3.00D-01 FncErr=1.00D-07 GrdErr=1.00D-06 EigMax=2.50D+02 EigMin=1.00D-04
 Number of steps in this run=     43 maximum allowed number of steps=    100.
 GradGradGradGradGradGradGradGradGradGradGradGradGradGradGradGradGradGrad

 ---------------------------------------------------------------------------------------------------
                            Z-MATRIX (ANGSTROMS AND DEGREES)
   CD    Cent   Atom    N1       Length/X        N2       Alpha/Y        N3        Beta/Z          J
 ---------------------------------------------------------------------------------------------------
      1      1  C 
      2      2  C        1   1.300000(     1)
      3      3  C        2   1.300000(     2)      1  120.000(    34)
      4      4  C        3   1.300000(     3)      2  120.000(    35)      1    0.000(    66)      0
      5      5  C        4   1.300000(     4)      3  120.000(    36)      2    0.000(    67)      0
      6      6  C        1   1.300000(     5)      2  119.978(    37)      3    1.717(    68)      0
      7      7  F        1   1.400000(     6)      2  120.000(    38)      3 -180.000(    69)      0
      8      8  H        2   1.000000(     7)      1  120.000(    39)      6 -178.283(    70)      0
      9      9  H        3   1.000000(     8)      2  120.000(    40)      1  180.000(    71)      0
     10     10  H        4   1.000000(     9)      3  120.000(    41)      2  180.000(    72)      0
     11     11  H        5   1.000000(    10)      4  120.000(    42)      3  180.000(    73)      0
     12     12  H        6   1.001007(    11)      1  119.916(    43)      2 -177.772(    74)      0
     13     13  O        1   4.200000(    12)      2  120.000(    44)      3 -180.000(    75)      0
     14     14  C       13   1.200000(    13)      1  179.900(    45)      2  180.000(    76)      0
     15     15  H       14   1.000000(    14)     13  120.000(    46)      1  -90.045(    77)      0
     16     16  H       14   1.000000(    15)     13  120.000(    47)      1   90.045(    78)      0
     17     17  H        7   2.120000(    16)      1  100.000(    48)      2   90.000(    79)      0
     18     18  N       17   1.000000(    17)      7  179.900(    49)      1   90.000(    80)      0
     19     19  C       18   1.330000(    18)     17  119.500(    50)      7    0.000(    81)      0
     20     20  O       19   1.230000(    19)     18  123.200(    51)     17 -180.000(    82)      0
     21     21  C       18   1.450000(    20)     17  121.900(    52)     19 -180.000(    83)      0
     22     22  H       21   1.000000(    21)     18  110.700(    53)     17 -180.000(    84)      0
     23     23  H       21   1.000000(    22)     18  110.700(    54)     17  -60.000(    85)      0
     24     24  H       21   1.000000(    23)     18  110.700(    55)     17   60.000(    86)      0
     25     25  H       19   1.000000(    24)     18  113.467(    56)     17    0.000(    87)      0
     26     26  H        7   2.120000(    25)      1  100.000(    57)      2  -90.000(    88)      0
     27     27  N       26   1.000000(    26)      7  179.900(    58)      1  -90.000(    89)      0
     28     28  C       27   1.330000(    27)     26  119.500(    59)      7  180.000(    90)      0
     29     29  O       28   1.230000(    28)     27  123.200(    60)     26 -180.000(    91)      0
     30     30  C       27   1.450000(    29)     26  121.900(    61)     28 -180.000(    92)      0
     31     31  H       30   1.000000(    30)     27  110.700(    62)     26  180.000(    93)      0
     32     32  H       30   1.000000(    31)     27  110.700(    63)     26  -60.000(    94)      0
     33     33  H       30   1.000000(    32)     27  110.700(    64)     26   60.000(    95)      0
     34     34  H       28   1.000000(    33)     27  113.467(    65)     26    0.000(    96)      0
 ---------------------------------------------------------------------------------------------------
                         Z-Matrix orientation:                         
 ---------------------------------------------------------------------
 Center     Atomic      Atomic             Coordinates (Angstroms)
 Number     Number       Type             X           Y           Z
 ---------------------------------------------------------------------
      1          6           0        0.000000    0.000000    0.000000
      2          6           0        0.000000    0.000000    1.300000
      3          6           0        1.125833    0.000000    1.950000
      4          6           0        2.251666    0.000000    1.300000
      5          6           0        2.251666    0.000000    0.000000
      6          6           0        1.125580   -0.033745   -0.649562
      7          9           0       -1.212436    0.000000   -0.700000
      8          1           0       -0.866025    0.000000    1.800000
      9          1           0        1.125833    0.000000    2.950000
     10          1           0        3.117691    0.000000    1.800000
     11          1           0        3.117691    0.000000   -0.500000
     12          1           0        1.125833   -0.000000   -1.650000
     13          8           0       -3.637307    0.000000   -2.100000
     14          6           0       -4.675488    0.000000   -2.701813
     15          1           0       -5.108404    0.866025   -2.951981
     16          1           0       -5.108404   -0.866025   -2.951981
     17          1           0       -1.531249    2.087792   -0.884067
     18          7           0       -1.680760    3.072599   -0.972403
     19          6           0       -1.199589    3.715582   -2.032566
     20          8           0       -1.343395    4.924232   -2.209721
     21          6           0       -2.411147    3.829308    0.025809
     22          1           0       -2.460643    4.795025   -0.229027
     23          1           0       -3.344400    3.482475    0.119330
     24          1           0       -1.962551    3.763826    0.917141
     25          1           0       -0.710188    3.121088   -2.670583
     26          1           0       -1.531249   -2.087792   -0.884067
     27          7           0       -1.680760   -3.072599   -0.972403
     28          6           0       -2.357768   -3.719561   -0.027945
     29          8           0       -2.580991   -4.928484   -0.067642
     30          6           0       -1.179494   -3.825076   -2.105985
     31          1           0       -1.423325   -4.791461   -2.024456
     32          1           0       -1.565208   -3.476362   -2.960165
     33          1           0       -0.183359   -3.757713   -2.162354
     34          1           0       -2.667076   -3.127812    0.716476
 ---------------------------------------------------------------------
                    Distance matrix (angstroms):
                    1          2          3          4          5
     1  C    0.000000
     2  C    1.300000   0.000000
     3  C    2.251666   1.300000   0.000000
     4  C    2.600000   2.251666   1.300000   0.000000
     5  C    2.251666   2.600000   2.251666   1.300000   0.000000
     6  C    1.300000   2.251413   2.599781   2.251666   1.300438
     7  F    1.400000   2.338803   3.534119   4.000000   3.534119
     8  H    1.997498   1.000000   1.997498   3.157531   3.600000
     9  H    3.157531   1.997498   1.000000   1.997498   3.157531
    10  H    3.600000   3.157531   1.997498   1.000000   1.997498
    11  H    3.157531   3.600000   3.157531   1.997498   1.000000
    12  H    1.997498   3.157531   3.600000   3.157531   1.997498
    13  O    4.200000   4.978956   6.252200   6.800000   6.252200
    14  C    5.399999   6.154242   7.436040   7.999998   7.435406
    15  H    5.963219   6.702621   7.977790   8.544002   7.977144
    16  H    5.963219   6.702621   7.977790   8.544002   7.977144
    17  H    2.735905   3.387292   4.410317   4.841433   4.410317
    18  N    3.634747   4.174881   5.085102   5.483489   5.084329
    19  C    4.401805   5.133279   5.922328   6.068171   5.463335
    20  O    5.561982   6.194426   6.902784   7.034960   6.485013
    21  C    4.525251   4.701148   5.556648   6.166765   6.033746
    22  H    5.394393   5.602227   6.372066   6.894639   6.726854
    23  H    4.829791   4.970576   5.954995   6.696086   6.592255
    24  H    4.342712   4.261992   4.977078   5.663267   5.724261
    25  H    4.168641   5.100106   5.870430   5.854853   5.064167
    26  H    2.735905   3.387292   4.410317   4.841433   4.410317
    27  N    3.634747   4.174881   5.085102   5.483489   5.084329
    28  C    4.403973   4.599743   5.466523   6.070045   5.923073
    29  O    5.563816   5.729041   6.488558   7.036688   6.902833
    30  C    4.523007   5.255773   6.032972   6.164804   5.553309
    31  H    5.392808   6.002996   6.727006   6.893161   6.368837
    32  H    4.826753   5.716990   6.590638   6.693476   5.951151
    33  H    4.339332   5.112918   5.722399   5.660181   4.972477
    34  H    4.172510   4.151747   5.068624   5.858134   5.872867
                    6          7          8          9         10
     6  C    0.000000
     7  F    2.338803   0.000000
     8  H    3.157212   2.523886   0.000000
     9  H    3.599720   4.334743   2.300000   0.000000
    10  H    3.157531   5.000000   3.983717   2.300000   0.000000
    11  H    1.998003   4.334743   4.600000   3.983717   2.300000
    12  H    1.001007   2.523886   3.983717   4.600000   3.983717
    13  O    4.978956   2.800000   4.784349   6.941902   7.800000
    14  C    6.153476   3.999999   5.897315   8.099279   8.999998
    15  H    6.706212   4.582574   6.428771   8.628389   9.539390
    16  H    6.697491   4.582574   6.428771   8.628389   9.539390
    17  H    3.408028   2.120000   3.464912   5.110678   5.759839
    18  N    4.198707   3.119999   4.217923   5.718660   6.336577
    19  C    4.623479   3.947334   5.348399   6.636196   6.865349
    20  O    5.754257   5.152132   6.368187   7.547706   7.760620
    21  C    5.280885   4.077660   4.494303   5.977016   6.955531
    22  H    6.029500   4.977158   5.445367   6.779475   7.630663
    23  H    5.738965   4.164638   4.592888   6.334296   7.530665
    24  H    5.139325   4.164638   4.018482   5.276080   6.383940
    25  H    4.172235   3.725136   5.454502   6.686039   6.661829
    26  H    3.366429   2.120000   3.464912   5.110678   5.759839
    27  N    4.149024   3.119999   4.217923   5.718660   6.336577
    28  C    5.109340   3.949503   4.404749   5.902437   6.867108
    29  O    6.167314   5.153909   5.542486   6.865615   7.762282
    30  C    4.669981   4.075425   5.475965   6.746016   6.953685
    31  H    5.569840   4.975616   6.155903   7.362168   7.629246
    32  H    4.942756   4.161477   5.935749   7.365925   7.528201
    33  H    4.227269   4.161477   5.503335   6.478469   6.381034
    34  H    5.081687   3.729020   3.768423   5.399814   6.664890
                   11         12         13         14         15
    11  H    0.000000
    12  H    2.300000   0.000000
    13  O    6.941902   4.784349   0.000000
    14  C    8.098249   5.895900   1.200000   0.000000
    15  H    8.627332   6.427353   1.907878   1.000000   0.000000
    16  H    8.627332   6.427353   1.907878   1.000000   1.732051
    17  H    5.110678   3.464912   3.205129   4.189191   4.308714
    18  N    5.717444   4.216274   3.813189   4.626027   4.531715
    19  C    5.898577   4.399942   4.444386   5.131795   4.923833
    20  O    6.860940   5.537006   5.433427   5.965992   5.585274
    21  C    6.745971   5.475597   4.548201   5.218310   4.992341
    22  H    7.360944   6.154205   5.279900   5.832022   5.464628
    23  H    7.366806   5.936425   4.139910   4.675284   4.403461
    24  H    6.479471   5.504064   5.106304   5.884152   5.767473
    25  H    5.394931   3.762148   4.316802   5.046363   4.950636
    26  H    5.110678   3.464912   3.205129   4.189191   5.079109
    27  N    5.717444   4.216274   3.813189   4.626027   5.583926
    28  C    6.636160   5.348053   4.445871   5.133862   6.094554
    29  O    7.546646   6.366660   5.434725   5.967892   6.948638
    30  C    5.972956   4.489283   4.546657   5.216148   6.177255
    31  H    6.775168   5.440269   5.278780   5.830392   6.815223
    32  H    6.329854   4.587301   4.137460   4.671797   5.604519
    33  H    5.270746   4.012094   5.104317   5.881382   6.801363
    34  H    6.687791   5.456150   4.319385   5.049913   5.947133
                   16         17         18         19         20
    16  H    0.000000
    17  H    5.079109   0.000000
    18  N    5.583926   1.000000   0.000000
    19  C    6.092232   2.019591   1.330000   0.000000
    20  O    6.946461   3.136564   2.252403   1.230000   0.000000
    21  C    6.179691   2.152898   1.450000   2.391174   2.708605
    22  H    6.817082   2.936317   2.031644   2.451165   2.277737
    23  H    5.608397   2.497892   2.031644   3.047165   3.392221
    24  H    6.804559   2.497892   2.031644   3.047165   3.392221
    25  H    5.943111   2.221144   1.956573   1.000000   1.965877
    26  H    4.308714   4.175585   5.163312   5.925217   7.138707
    27  N    4.531715   5.163312   6.145197   6.887297   8.099017
    28  C    4.925307   5.928021   6.890847   7.787248   8.972416
    29  O    5.586663   7.141194   8.102243   8.971570  10.158551
    30  C    4.990794   6.048044   7.008152   7.541042   8.751458
    31  H    5.463438   6.973970   7.938295   8.509988   9.717788
    32  H    4.400928   5.938952   6.844957   7.260728   8.436963
    33  H    5.765539   6.133577   7.093050   7.543189   8.759230
    34  H    4.953114   5.572645   6.501555   7.519494   8.668920
                   21         22         23         24         25
    21  C    0.000000
    22  H    1.000000   0.000000
    23  H    1.000000   1.620237   0.000000
    24  H    1.000000   1.620237   1.620237   0.000000
    25  H    3.265787   3.439091   3.853996   3.853996   0.000000
    26  H    6.050965   6.976104   5.943249   6.137737   5.567604
    27  N    7.011862   7.941053   6.850443   7.098344   6.495197
    28  C    7.549249   8.517581   7.270795   7.553176   7.516152
    29  O    8.759938   9.725593   8.447603   8.769751   8.664342
    30  C    8.040592   8.914621   7.939720   8.206334   6.984857
    31  H    8.916111   9.808176   8.760386   9.062930   7.970852
    32  H    7.937536   8.756527   7.815001   8.222634   6.658924
    33  H    8.204511   9.059421   8.223053   8.319999   6.917641
    34  H    6.996002   7.981725   6.671675   6.930462   7.372268
                   26         27         28         29         30
    26  H    0.000000
    27  N    1.000000   0.000000
    28  C    2.019591   1.330000   0.000000
    29  O    3.136564   2.252403   1.230000   0.000000
    30  C    2.152898   1.450000   2.391174   2.708605   0.000000
    31  H    2.936317   2.031644   2.451165   2.277737   1.000000
    32  H    2.497892   2.031644   3.047165   3.392221   1.000000
    33  H    2.497892   2.031644   3.047165   3.392221   1.000000
    34  H    2.221144   1.956573   1.000000   1.965877   3.265787
                   31         32         33         34
    31  H    0.000000
    32  H    1.620237   0.000000
    33  H    1.620237   1.620237   0.000000
    34  H    3.439091   3.853996   3.853996   0.000000
 Stoichiometry    C11H17FN2O3
 Framework group  C1[X(C11H17FN2O3)]
 Deg. of freedom    96
 Full point group                 C1      NOp   1
 Largest Abelian subgroup         C1      NOp   1
 Largest concise Abelian subgroup C1      NOp   1
                         Standard orientation:                         
 ---------------------------------------------------------------------
 Center     Atomic      Atomic             Coordinates (Angstroms)
 Number     Number       Type             X           Y           Z
 ---------------------------------------------------------------------
      1          6           0        0.000457    1.291765   -0.001238
      2          6           0       -0.089187    1.942161   -1.123267
      3          6           0       -0.090338    3.242160   -1.122716
      4          6           0       -0.001845    3.891764   -0.000137
      5          6           0        0.087799    3.241368    1.121892
      6          6           0        0.055271    1.941337    1.123507
      7          9           0        0.001697   -0.108234   -0.001831
      8          1           0       -0.157258    1.442466   -1.986789
      9          1           0       -0.159295    3.742465   -1.985815
     10          1           0       -0.002731    4.891763    0.000287
     11          1           0        0.155870    3.741062    1.985415
     12          1           0        0.157907    1.441064    1.984441
     13          8           0        0.004177   -2.908233   -0.003016
     14          6           0        0.005406   -4.108231   -0.001437
     15          1           0        0.869175   -4.607438   -0.069969
     16          1           0       -0.857447   -4.609025    0.067059
     17          1           0        2.083271   -0.474455   -0.167158
     18          7           0        3.065282   -0.647201   -0.243403
     19          6           0        3.798020   -0.760395    0.860763
     20          8           0        5.009519   -0.972434    0.846314
     21          6           0        3.722454   -0.779503   -1.529141
     22          1           0        4.700797   -0.948969   -1.410282
     23          1           0        3.334059   -1.541087   -2.047926
     24          1           0        3.613115    0.054791   -2.069509
     25          1           0        3.268370   -0.656395    1.702579
     26          1           0       -2.079224   -0.478282    0.163185
     27          7           0       -3.060651   -0.652833    0.242763
     28          6           0       -3.796974   -0.767095   -0.858906
     29          8           0       -5.008029   -0.981341   -0.840345
     30          6           0       -3.713158   -0.786638    1.530719
     31          1           0       -4.691593   -0.957855    1.415182
     32          1           0       -3.321597   -1.547639    2.047979
     33          1           0       -3.603479    0.047724    2.070914
     34          1           0       -3.270411   -0.661930   -1.702512
 ---------------------------------------------------------------------
 Rotational constants (GHZ):           0.4004203           0.2441305           0.1724963
 Standard basis: 6-311++G(d,p) (5D, 7F)
 There are   510 symmetry adapted cartesian basis functions of A   symmetry.
 There are   493 symmetry adapted basis functions of A   symmetry.
   493 basis functions,   765 primitive gaussians,   510 cartesian basis functions
    65 alpha electrons       65 beta electrons
       nuclear repulsion energy      1168.0421586032 Hartrees.
 NAtoms=   34 NActive=   34 NUniq=   34 SFac= 1.00D+00 NAtFMM=   60 NAOKFM=F Big=F
 Integral buffers will be    131072 words long.
 Raffenetti 2 integral format.
 Two-electron integral symmetry is turned on.
 ------------------------------------------------------------------------------
 Polarizable Continuum Model (PCM)
 =================================
 Model                : PCM.
 Atomic radii         : UFF (Universal Force Field).
 Polarization charges : Total charges.
 Charge compensation  : None.
 Solution method      : On-the-fly selection.
 Cavity type          : Scaled VdW (van der Waals Surface) (Alpha=1.100).
 Cavity algorithm     : GePol (No added spheres)
                        Default sphere list used, NSphG=   34.
                        Lebedev-Laikov grids with approx.  5.0 points / Ang**2.
                        Smoothing algorithm: York/Karplus (Gamma=1.0000).
                        Polarization charges: spherical gaussians, with
                                              point-specific exponents (IZeta= 3).
                        Self-potential: point-specific (ISelfS= 7).
                        Self-field    : sphere-specific E.n sum rule (ISelfD= 2).
 1st derivatives      : Analytical E(r).r(x)/FMM algorithm (CHGder, D1EAlg=3).
                        Cavity 1st derivative terms included.
 Solvent              : Water, Eps=  78.355300 Eps(inf)=   1.777849
 ------------------------------------------------------------------------------
 One-electron integrals computed using PRISM.
 NBasis=   493 RedAO= T EigKep=  2.78D-06  NBF=   493
 NBsUse=   492 1.00D-06 EigRej=  3.49D-07 NBFU=   492
 ExpMin= 3.60D-02 ExpMax= 1.14D+04 ExpMxC= 1.72D+03 IAcc=3 IRadAn=         5 AccDes= 0.00D+00
 Harris functional with IExCor= 1009 and IRadAn=       5 diagonalized for initial guess.
 HarFok:  IExCor= 1009 AccDes= 0.00D+00 IRadAn=         5 IDoV= 1 UseB2=F ITyADJ=14
 ICtDFT=  3500011 ScaDFX=  1.000000  1.000000  1.000000  1.000000
 FoFCou: FMM=F IPFlag=           0 FMFlag=      100000 FMFlg1=           0
         NFxFlg=           0 DoJE=T BraDBF=F KetDBF=T FulRan=T
         wScrn=  0.000000 ICntrl=       500 IOpCl=  0 I1Cent=   200000004 NGrid=           0
         NMat0=    1 NMatS0=      1 NMatT0=    0 NMatD0=    1 NMtDS0=    0 NMtDT0=    0
 Petite list used in FoFCou.
 Requested convergence on RMS density matrix=1.00D-08 within 128 cycles.
 Requested convergence on MAX density matrix=1.00D-06.
 Requested convergence on             energy=1.00D-06.
 No special actions if energy rises.
 Inv3:  Mode=1 IEnd=    28570188.
 Iteration    1 A*A^-1 deviation from unit magnitude is 4.88D-15 for   3084.
 Iteration    1 A*A^-1 deviation from orthogonality  is 3.77D-15 for   3079   2398.
 Iteration    1 A^-1*A deviation from unit magnitude is 4.88D-15 for   3084.
 Iteration    1 A^-1*A deviation from orthogonality  is 4.42D-15 for   1265   1178.
 Error on total polarization charges =  0.01497
 SCF Done:  E(RM062X) =  -864.159150554     A.U. after   14 cycles
            NFock= 14  Conv=0.43D-08     -V/T= 1.9991

 **********************************************************************

            Population analysis using the SCF Density.

 **********************************************************************

 Orbital symmetries:
       Occupied  (A) (A) (A) (A) (A) (A) (A) (A) (A) (A) (A) (A)
                 (A) (A) (A) (A) (A) (A) (A) (A) (A) (A) (A) (A)
                 (A) (A) (A) (A) (A) (A) (A) (A) (A) (A) (A) (A)
                 (A) (A) (A) (A) (A) (A) (A) (A) (A) (A) (A) (A)
                 (A) (A) (A) (A) (A) (A) (A) (A) (A) (A) (A) (A)
                 (A) (A) (A) (A) (A)
       Virtual   (A) (A) (A) (A) (A) (A) (A) (A) (A) (A) (A) (A)
                 (A) (A) (A) (A) (A) (A) (A) (A) (A) (A) (A) (A)
                 (A) (A) (A) (A) (A) (A) (A) (A) (A) (A) (A) (A)
                 (A) (A) (A) (A) (A) (A) (A) (A) (A) (A) (A) (A)
                 (A) (A) (A) (A) (A) (A) (A) (A) (A) (A) (A) (A)
                 (A) (A) (A) (A) (A) (A) (A) (A) (A) (A) (A) (A)
                 (A) (A) (A) (A) (A) (A) (A) (A) (A) (A) (A) (A)
                 (A) (A) (A) (A) (A) (A) (A) (A) (A) (A) (A) (A)
                 (A) (A) (A) (A) (A) (A) (A) (A) (A) (A) (A) (A)
                 (A) (A) (A) (A) (A) (A) (A) (A) (A) (A) (A) (A)
                 (A) (A) (A) (A) (A) (A) (A) (A) (A) (A) (A) (A)
                 (A) (A) (A) (A) (A) (A) (A) (A) (A) (A) (A) (A)
                 (A) (A) (A) (A) (A) (A) (A) (A) (A) (A) (A) (A)
                 (A) (A) (A) (A) (A) (A) (A) (A) (A) (A) (A) (A)
                 (A) (A) (A) (A) (A) (A) (A) (A) (A) (A) (A) (A)
                 (A) (A) (A) (A) (A) (A) (A) (A) (A) (A) (A) (A)
                 (A) (A) (A) (A) (A) (A) (A) (A) (A) (A) (A) (A)
                 (A) (A) (A) (A) (A) (A) (A) (A) (A) (A) (A) (A)
                 (A) (A) (A) (A) (A) (A) (A) (A) (A) (A) (A) (A)
                 (A) (A) (A) (A) (A) (A) (A) (A) (A) (A) (A) (A)
                 (A) (A) (A) (A) (A) (A) (A) (A) (A) (A) (A) (A)
                 (A) (A) (A) (A) (A) (A) (A) (A) (A) (A) (A) (A)
                 (A) (A) (A) (A) (A) (A) (A) (A) (A) (A) (A) (A)
                 (A) (A) (A) (A) (A) (A) (A) (A) (A) (A) (A) (A)
                 (A) (A) (A) (A) (A) (A) (A) (A) (A) (A) (A) (A)
                 (A) (A) (A) (A) (A) (A) (A) (A) (A) (A) (A) (A)
                 (A) (A) (A) (A) (A) (A) (A) (A) (A) (A) (A) (A)
                 (A) (A) (A) (A) (A) (A) (A) (A) (A) (A) (A) (A)
                 (A) (A) (A) (A) (A) (A) (A) (A) (A) (A) (A) (A)
                 (A) (A) (A) (A) (A) (A) (A) (A) (A) (A) (A) (A)
                 (A) (A) (A) (A) (A) (A) (A) (A) (A) (A) (A) (A)
                 (A) (A) (A) (A) (A) (A) (A) (A) (A) (A) (A) (A)
                 (A) (A) (A) (A) (A) (A) (A) (A) (A) (A) (A) (A)
                 (A) (A) (A) (A) (A) (A) (A) (A) (A) (A) (A) (A)
                 (A) (A) (A) (A) (A) (A) (A) (A) (A) (A) (A) (A)
                 (A) (A) (A) (A) (A) (A) (A)
 The electronic state is 1-A.
 Alpha  occ. eigenvalues --  -25.26425 -19.63944 -19.59394 -19.59394 -14.77522
 Alpha  occ. eigenvalues --  -14.77522 -10.63296 -10.63296 -10.61743 -10.61611
 Alpha  occ. eigenvalues --  -10.53610 -10.53610 -10.52744 -10.52732 -10.52378
 Alpha  occ. eigenvalues --  -10.52365 -10.51641  -1.37007  -1.19155  -1.16421
 Alpha  occ. eigenvalues --   -1.16420  -1.03955  -1.03945  -1.03454  -0.89587
 Alpha  occ. eigenvalues --   -0.88775  -0.83378  -0.83373  -0.74953  -0.74091
 Alpha  occ. eigenvalues --   -0.72745  -0.69657  -0.69510  -0.66848  -0.65069
 Alpha  occ. eigenvalues --   -0.64797  -0.60485  -0.59589  -0.59238  -0.58003
 Alpha  occ. eigenvalues --   -0.54698  -0.54588  -0.54222  -0.54132  -0.54033
 Alpha  occ. eigenvalues --   -0.53642  -0.52772  -0.50776  -0.49735  -0.49682
 Alpha  occ. eigenvalues --   -0.48328  -0.47571  -0.47481  -0.47202  -0.46394
 Alpha  occ. eigenvalues --   -0.46393  -0.44688  -0.42310  -0.35143  -0.34609
 Alpha  occ. eigenvalues --   -0.34588  -0.34128  -0.33398  -0.32641  -0.32468
 Alpha virt. eigenvalues --   -0.00668  -0.00529   0.00441   0.00537   0.00817
 Alpha virt. eigenvalues --    0.01904   0.02145   0.02326   0.02375   0.02781
 Alpha virt. eigenvalues --    0.03148   0.03259   0.03921   0.04186   0.04237
 Alpha virt. eigenvalues --    0.05089   0.05232   0.05325   0.05580   0.06167
 Alpha virt. eigenvalues --    0.06633   0.06995   0.07060   0.08286   0.08774
 Alpha virt. eigenvalues --    0.09137   0.09252   0.09522   0.09557   0.10401
 Alpha virt. eigenvalues --    0.10894   0.11299   0.11715   0.12150   0.12336
 Alpha virt. eigenvalues --    0.12351   0.13354   0.13445   0.13929   0.14079
 Alpha virt. eigenvalues --    0.14104   0.14264   0.14542   0.14607   0.15014
 Alpha virt. eigenvalues --    0.15333   0.15565   0.15882   0.15906   0.16671
 Alpha virt. eigenvalues --    0.17073   0.17447   0.17626   0.18472   0.18650
 Alpha virt. eigenvalues --    0.19037   0.19440   0.19698   0.20049   0.20434
 Alpha virt. eigenvalues --    0.20557   0.21000   0.21151   0.21548   0.22468
 Alpha virt. eigenvalues --    0.23351   0.23533   0.24224   0.24560   0.25232
 Alpha virt. eigenvalues --    0.25534   0.25713   0.26212   0.26547   0.26818
 Alpha virt. eigenvalues --    0.26942   0.27478   0.28082   0.28287   0.28653
 Alpha virt. eigenvalues --    0.29563   0.29991   0.30454   0.30953   0.31486
 Alpha virt. eigenvalues --    0.31682   0.31735   0.32404   0.33134   0.33468
 Alpha virt. eigenvalues --    0.33702   0.34155   0.34391   0.34575   0.35160
 Alpha virt. eigenvalues --    0.35864   0.36667   0.36918   0.37121   0.37717
 Alpha virt. eigenvalues --    0.37854   0.38830   0.39475   0.39968   0.40913
 Alpha virt. eigenvalues --    0.41430   0.42115   0.43032   0.44525   0.44624
 Alpha virt. eigenvalues --    0.44787   0.45861   0.46842   0.47220   0.49560
 Alpha virt. eigenvalues --    0.49583   0.50266   0.51378   0.53529   0.54753
 Alpha virt. eigenvalues --    0.55273   0.56342   0.56788   0.58530   0.59757
 Alpha virt. eigenvalues --    0.60126   0.60769   0.61232   0.61314   0.61546
 Alpha virt. eigenvalues --    0.62183   0.62451   0.62902   0.63079   0.63987
 Alpha virt. eigenvalues --    0.64296   0.65839   0.66153   0.67411   0.67982
 Alpha virt. eigenvalues --    0.69331   0.69464   0.69972   0.70628   0.71776
 Alpha virt. eigenvalues --    0.72100   0.73959   0.74169   0.75303   0.75822
 Alpha virt. eigenvalues --    0.76171   0.77039   0.77671   0.78160   0.78243
 Alpha virt. eigenvalues --    0.80318   0.80593   0.80854   0.81546   0.82028
 Alpha virt. eigenvalues --    0.83174   0.84554   0.85781   0.86317   0.87937
 Alpha virt. eigenvalues --    0.89175   0.90124   0.91110   0.91359   0.91952
 Alpha virt. eigenvalues --    0.94008   0.94314   0.94768   0.95256   0.97262
 Alpha virt. eigenvalues --    1.00207   1.00992   1.01549   1.02376   1.02688
 Alpha virt. eigenvalues --    1.03339   1.03696   1.06596   1.08447   1.08969
 Alpha virt. eigenvalues --    1.09286   1.10404   1.10722   1.11858   1.11885
 Alpha virt. eigenvalues --    1.13720   1.14286   1.16094   1.16824   1.17469
 Alpha virt. eigenvalues --    1.18018   1.18890   1.19868   1.20809   1.21136
 Alpha virt. eigenvalues --    1.21411   1.24025   1.24375   1.25869   1.27493
 Alpha virt. eigenvalues --    1.28742   1.29990   1.30356   1.33822   1.35426
 Alpha virt. eigenvalues --    1.35977   1.36670   1.37842   1.40347   1.44309
 Alpha virt. eigenvalues --    1.46973   1.53473   1.53881   1.54681   1.54804
 Alpha virt. eigenvalues --    1.55506   1.57529   1.58767   1.58944   1.59919
 Alpha virt. eigenvalues --    1.61273   1.62402   1.63163   1.63792   1.64048
 Alpha virt. eigenvalues --    1.64277   1.65275   1.65549   1.68004   1.68249
 Alpha virt. eigenvalues --    1.68683   1.69095   1.69486   1.70881   1.72218
 Alpha virt. eigenvalues --    1.72647   1.73490   1.74232   1.75811   1.76764
 Alpha virt. eigenvalues --    1.77122   1.77275   1.78242   1.80782   1.82673
 Alpha virt. eigenvalues --    1.82833   1.83283   1.84169   1.85101   1.85678
 Alpha virt. eigenvalues --    1.86063   1.87171   1.87718   1.87953   1.91598
 Alpha virt. eigenvalues --    1.92689   1.92998   1.94873   1.97352   1.97705
 Alpha virt. eigenvalues --    1.99535   1.99775   2.03780   2.04155   2.05139
 Alpha virt. eigenvalues --    2.05678   2.05945   2.07425   2.09850   2.13817
 Alpha virt. eigenvalues --    2.13939   2.14799   2.15385   2.16047   2.17103
 Alpha virt. eigenvalues --    2.18338   2.18924   2.20913   2.21889   2.26285
 Alpha virt. eigenvalues --    2.26751   2.30084   2.38034   2.40344   2.40677
 Alpha virt. eigenvalues --    2.41012   2.41937   2.43388   2.46852   2.49724
 Alpha virt. eigenvalues --    2.50536   2.52897   2.53723   2.56218   2.56691
 Alpha virt. eigenvalues --    2.57282   2.58636   2.58942   2.60256   2.62703
 Alpha virt. eigenvalues --    2.62950   2.64765   2.65617   2.66308   2.68195
 Alpha virt. eigenvalues --    2.69898   2.70255   2.70916   2.72252   2.72378
 Alpha virt. eigenvalues --    2.74875   2.76070   2.77264   2.77798   2.78734
 Alpha virt. eigenvalues --    2.80511   2.80864   2.82077   2.82167   2.84792
 Alpha virt. eigenvalues --    2.84905   2.86941   2.87112   2.87762   2.89453
 Alpha virt. eigenvalues --    2.90330   2.91128   2.92190   2.94208   2.94718
 Alpha virt. eigenvalues --    2.94817   2.95675   2.96651   2.99413   3.00244
 Alpha virt. eigenvalues --    3.00616   3.00806   3.02811   3.04693   3.05666
 Alpha virt. eigenvalues --    3.06810   3.06986   3.09604   3.11880   3.25046
 Alpha virt. eigenvalues --    3.27187   3.28254   3.29395   3.36354   3.39916
 Alpha virt. eigenvalues --    3.41733   3.41771   3.42215   3.43879   3.45279
 Alpha virt. eigenvalues --    3.55819   3.60767   3.61851   3.63544   3.64122
 Alpha virt. eigenvalues --    3.65274   3.70572   3.71664   3.75599   3.77770
 Alpha virt. eigenvalues --    3.87232   3.87850   3.87861   3.88485   3.96045
 Alpha virt. eigenvalues --    3.96409   4.01219   4.01980   4.03959   4.04827
 Alpha virt. eigenvalues --    4.05675   4.09228   4.10701   4.10781   4.11150
 Alpha virt. eigenvalues --    4.12404   4.13428   4.17529   4.19211   4.26274
 Alpha virt. eigenvalues --    4.26946   4.36970   4.94421   4.94923   4.99370
 Alpha virt. eigenvalues --    5.00824   5.06401   5.06644   5.12105   5.17394
 Alpha virt. eigenvalues --    5.17652   5.26573   5.33097   5.33294   5.85162
 Alpha virt. eigenvalues --    5.86615   5.86694   6.64121   6.68006   6.90915
 Alpha virt. eigenvalues --   23.74846  24.08859  24.09237  24.18064  24.26965
 Alpha virt. eigenvalues --   24.27919  24.27960  24.31782  24.54124  24.57138
 Alpha virt. eigenvalues --   24.72680  35.71170  35.72826  50.07929  50.11543
 Alpha virt. eigenvalues --   50.11653  66.98445
          Condensed to atoms (all electrons):
               1          2          3          4          5          6
     1  C   15.410206  -1.868404  -2.571915  -0.526723  -2.501639  -1.713070
     2  C   -1.868404  17.802812   1.935653  -0.900270  -0.633176 -10.808389
     3  C   -2.571915   1.935653   7.069102   0.462488  -0.328050  -0.683096
     4  C   -0.526723  -0.900270   0.462488   7.596200   0.412723  -0.830359
     5  C   -2.501639  -0.633176  -0.328050   0.412723   7.212068   1.694328
     6  C   -1.713070 -10.808389  -0.683096  -0.830359   1.694328  17.866631
     7  F    0.789884  -0.311456  -0.073027   0.004380  -0.058249  -0.313277
     8  H   -0.233727   0.679475   0.003143  -0.034429   0.016038  -0.130770
     9  H    0.046762  -0.036938   0.378799  -0.122674  -0.006082   0.069801
    10  H    0.023192  -0.029135  -0.058212   0.514952  -0.073477  -0.016951
    11  H    0.049256   0.082731  -0.015200  -0.129496   0.408653  -0.068921
    12  H   -0.221396  -0.146406   0.023982  -0.027640  -0.038961   0.708674
    13  O    0.057671  -0.022798  -0.002427  -0.000544  -0.002669  -0.025519
    14  C   -0.002261   0.001087   0.000792   0.000255   0.000759   0.000656
    15  H   -0.000932  -0.000796  -0.000032  -0.000067   0.000157   0.001171
    16  H    0.000103   0.000295  -0.000001   0.000011  -0.000107  -0.000504
    17  H    0.040922  -0.003213  -0.051766  -0.005378   0.026913  -0.010948
    18  N   -0.060494   0.013570   0.035941  -0.001349   0.002392   0.016210
    19  C    0.047719  -0.023611  -0.000983   0.005322  -0.014092   0.002631
    20  O    0.001847  -0.000142  -0.000974   0.000183   0.001184  -0.001713
    21  C   -0.006389   0.054980   0.006565   0.003393  -0.011289  -0.049893
    22  H    0.003719   0.004072   0.000646   0.000433  -0.001818  -0.004958
    23  H    0.003264  -0.003148   0.000133   0.000187  -0.000981   0.002190
    24  H   -0.001018  -0.007385  -0.001340   0.002038   0.005138   0.005945
    25  H    0.028451  -0.014923  -0.005867   0.005941  -0.009824   0.008774
    26  H    0.040726  -0.033178   0.007198  -0.002535  -0.040849   0.014758
    27  N   -0.050274   0.031898   0.010581  -0.004044   0.028589  -0.010392
    28  C    0.042444   0.018430  -0.008338   0.006133  -0.004757  -0.033899
    29  O    0.001541  -0.001147   0.000481  -0.000032  -0.000626  -0.000093
    30  C   -0.006733  -0.042091  -0.007406   0.002473   0.006396   0.047480
    31  H    0.005752  -0.003270  -0.001634   0.000403  -0.000325   0.001666
    32  H    0.003656   0.003311  -0.000657   0.000087  -0.000141  -0.004745
    33  H   -0.009573  -0.005872   0.002867   0.003772   0.002403   0.009378
    34  H    0.029750   0.008299  -0.011986   0.005563  -0.005166  -0.013998
               7          8          9         10         11         12
     1  C    0.789884  -0.233727   0.046762   0.023192   0.049256  -0.221396
     2  C   -0.311456   0.679475  -0.036938  -0.029135   0.082731  -0.146406
     3  C   -0.073027   0.003143   0.378799  -0.058212  -0.015200   0.023982
     4  C    0.004380  -0.034429  -0.122674   0.514952  -0.129496  -0.027640
     5  C   -0.058249   0.016038  -0.006082  -0.073477   0.408653  -0.038961
     6  C   -0.313277  -0.130770   0.069801  -0.016951  -0.068921   0.708674
     7  F    9.092406  -0.016790  -0.001239   0.001056  -0.000659  -0.018941
     8  H   -0.016790   0.493238  -0.008306   0.000887   0.002421   0.002153
     9  H   -0.001239  -0.008306   0.461596  -0.013285   0.001509   0.002300
    10  H    0.001056   0.000887  -0.013285   0.476790  -0.015335   0.002059
    11  H   -0.000659   0.002421   0.001509  -0.015335   0.471603  -0.016162
    12  H   -0.018941   0.002153   0.002300   0.002059  -0.016162   0.513213
    13  O    0.000374   0.000008   0.000039  -0.000005   0.000050  -0.000060
    14  C    0.001550   0.000060  -0.000015   0.000016  -0.000017   0.000072
    15  H   -0.000181  -0.000054   0.000006  -0.000002   0.000005   0.000037
    16  H   -0.000307   0.000073  -0.000002   0.000002  -0.000006   0.000037
    17  H    0.030214  -0.008043   0.001537  -0.001329   0.001139   0.009849
    18  N   -0.020199  -0.000961   0.000415  -0.000039  -0.000037   0.002599
    19  C   -0.001262   0.002968  -0.000453   0.000319  -0.000453  -0.003711
    20  O   -0.000011   0.000196  -0.000041   0.000004   0.000005   0.000105
    21  C    0.001060   0.000154  -0.000328   0.000188  -0.000209  -0.000160
    22  H   -0.000495   0.000563  -0.000043   0.000014   0.000017  -0.000424
    23  H   -0.000323  -0.000320   0.000089   0.000008  -0.000036   0.000114
    24  H    0.000885  -0.002865  -0.000426  -0.000041   0.000094  -0.000708
    25  H   -0.003802   0.000771  -0.000216   0.000016   0.000000  -0.011752
    26  H    0.043302   0.012294   0.000277  -0.001101   0.001724  -0.009842
    27  N   -0.019745   0.003440  -0.000015  -0.000117   0.000608  -0.000566
    28  C   -0.005006  -0.004197  -0.000421   0.000367  -0.000608   0.003336
    29  O    0.000087   0.000125   0.000007   0.000001  -0.000029   0.000107
    30  C   -0.000966  -0.001266   0.000060   0.000056  -0.000063  -0.001096
    31  H   -0.000911  -0.000333   0.000003   0.000027  -0.000089   0.000803
    32  H    0.000033  -0.000013  -0.000023  -0.000007   0.000157  -0.000854
    33  H    0.000299  -0.000367  -0.000026   0.000082  -0.000882  -0.001354
    34  H   -0.003665  -0.011752  -0.000030   0.000027  -0.000203   0.000622
              13         14         15         16         17         18
     1  C    0.057671  -0.002261  -0.000932   0.000103   0.040922  -0.060494
     2  C   -0.022798   0.001087  -0.000796   0.000295  -0.003213   0.013570
     3  C   -0.002427   0.000792  -0.000032  -0.000001  -0.051766   0.035941
     4  C   -0.000544   0.000255  -0.000067   0.000011  -0.005378  -0.001349
     5  C   -0.002669   0.000759   0.000157  -0.000107   0.026913   0.002392
     6  C   -0.025519   0.000656   0.001171  -0.000504  -0.010948   0.016210
     7  F    0.000374   0.001550  -0.000181  -0.000307   0.030214  -0.020199
     8  H    0.000008   0.000060  -0.000054   0.000073  -0.008043  -0.000961
     9  H    0.000039  -0.000015   0.000006  -0.000002   0.001537   0.000415
    10  H   -0.000005   0.000016  -0.000002   0.000002  -0.001329  -0.000039
    11  H    0.000050  -0.000017   0.000005  -0.000006   0.001139  -0.000037
    12  H   -0.000060   0.000072   0.000037   0.000037   0.009849   0.002599
    13  O    8.202694   0.232377  -0.091880  -0.091588   0.035750  -0.003893
    14  C    0.232377   4.826721   0.421017   0.420761  -0.014390   0.001886
    15  H   -0.091880   0.421017   0.665053  -0.120417   0.002959   0.000765
    16  H   -0.091588   0.420761  -0.120417   0.665177  -0.001370   0.000520
    17  H    0.035750  -0.014390   0.002959  -0.001370   0.687837   0.329623
    18  N   -0.003893   0.001886   0.000765   0.000520   0.329623   7.145743
    19  C   -0.004832   0.001850  -0.000233  -0.000148  -0.159072   0.163841
    20  O    0.000139  -0.000169  -0.000020  -0.000021   0.002249  -0.175526
    21  C   -0.001873   0.002412  -0.001233   0.000526  -0.068014   0.160368
    22  H    0.000100   0.000573  -0.000530   0.000084  -0.040350  -0.105912
    23  H   -0.000265   0.000726  -0.000317   0.000011  -0.009389  -0.039579
    24  H   -0.000328  -0.000590   0.000481  -0.000199   0.032802  -0.043943
    25  H   -0.000571  -0.000376  -0.000220  -0.000091  -0.030630  -0.233446
    26  H    0.035399  -0.014752  -0.001194   0.002744  -0.071697   0.006857
    27  N   -0.004182   0.002085   0.000587   0.000726   0.006614  -0.000315
    28  C   -0.004582   0.001845  -0.000193  -0.000184   0.010675  -0.000934
    29  O    0.000144  -0.000163  -0.000022  -0.000032   0.000157  -0.000002
    30  C   -0.001179   0.002423   0.000463  -0.001136   0.006438  -0.000692
    31  H    0.000175   0.000543   0.000076  -0.000485   0.000776  -0.000074
    32  H   -0.000475   0.000766   0.000011  -0.000352   0.000862  -0.000204
    33  H   -0.000402  -0.000629  -0.000197   0.000488  -0.001098   0.000187
    34  H   -0.000598  -0.000436  -0.000093  -0.000218   0.005773  -0.000550
              19         20         21         22         23         24
     1  C    0.047719   0.001847  -0.006389   0.003719   0.003264  -0.001018
     2  C   -0.023611  -0.000142   0.054980   0.004072  -0.003148  -0.007385
     3  C   -0.000983  -0.000974   0.006565   0.000646   0.000133  -0.001340
     4  C    0.005322   0.000183   0.003393   0.000433   0.000187   0.002038
     5  C   -0.014092   0.001184  -0.011289  -0.001818  -0.000981   0.005138
     6  C    0.002631  -0.001713  -0.049893  -0.004958   0.002190   0.005945
     7  F   -0.001262  -0.000011   0.001060  -0.000495  -0.000323   0.000885
     8  H    0.002968   0.000196   0.000154   0.000563  -0.000320  -0.002865
     9  H   -0.000453  -0.000041  -0.000328  -0.000043   0.000089  -0.000426
    10  H    0.000319   0.000004   0.000188   0.000014   0.000008  -0.000041
    11  H   -0.000453   0.000005  -0.000209   0.000017  -0.000036   0.000094
    12  H   -0.003711   0.000105  -0.000160  -0.000424   0.000114  -0.000708
    13  O   -0.004832   0.000139  -0.001873   0.000100  -0.000265  -0.000328
    14  C    0.001850  -0.000169   0.002412   0.000573   0.000726  -0.000590
    15  H   -0.000233  -0.000020  -0.001233  -0.000530  -0.000317   0.000481
    16  H   -0.000148  -0.000021   0.000526   0.000084   0.000011  -0.000199
    17  H   -0.159072   0.002249  -0.068014  -0.040350  -0.009389   0.032802
    18  N    0.163841  -0.175526   0.160368  -0.105912  -0.039579  -0.043943
    19  C    4.950731   0.466117  -0.038093   0.039146  -0.004697  -0.013997
    20  O    0.466117   8.266990  -0.030474   0.036126  -0.002764  -0.004413
    21  C   -0.038093  -0.030474   5.068922   0.451038   0.426185   0.397876
    22  H    0.039146   0.036126   0.451038   0.489580  -0.027918  -0.030031
    23  H   -0.004697  -0.002764   0.426185  -0.027918   0.544438  -0.060417
    24  H   -0.013997  -0.004413   0.397876  -0.030031  -0.060417   0.558278
    25  H    0.447903  -0.037563  -0.003615   0.014810  -0.002231  -0.002787
    26  H    0.010838   0.000124   0.006164   0.000839   0.000758  -0.000927
    27  N   -0.000911  -0.000002  -0.000680  -0.000073  -0.000211   0.000184
    28  C   -0.001319  -0.000004  -0.000489  -0.000048   0.000023   0.000000
    29  O   -0.000005  -0.000000  -0.000003  -0.000000  -0.000003   0.000002
    30  C   -0.000572  -0.000002  -0.000497  -0.000031  -0.000051   0.000054
    31  H   -0.000047  -0.000000  -0.000025  -0.000000  -0.000003  -0.000002
    32  H    0.000012  -0.000003  -0.000068  -0.000004  -0.000018   0.000015
    33  H    0.000038   0.000002   0.000070   0.000001   0.000010  -0.000004
    34  H   -0.000580  -0.000001  -0.000054  -0.000003  -0.000210   0.000082
              25         26         27         28         29         30
     1  C    0.028451   0.040726  -0.050274   0.042444   0.001541  -0.006733
     2  C   -0.014923  -0.033178   0.031898   0.018430  -0.001147  -0.042091
     3  C   -0.005867   0.007198   0.010581  -0.008338   0.000481  -0.007406
     4  C    0.005941  -0.002535  -0.004044   0.006133  -0.000032   0.002473
     5  C   -0.009824  -0.040849   0.028589  -0.004757  -0.000626   0.006396
     6  C    0.008774   0.014758  -0.010392  -0.033899  -0.000093   0.047480
     7  F   -0.003802   0.043302  -0.019745  -0.005006   0.000087  -0.000966
     8  H    0.000771   0.012294   0.003440  -0.004197   0.000125  -0.001266
     9  H   -0.000216   0.000277  -0.000015  -0.000421   0.000007   0.000060
    10  H    0.000016  -0.001101  -0.000117   0.000367   0.000001   0.000056
    11  H    0.000000   0.001724   0.000608  -0.000608  -0.000029  -0.000063
    12  H   -0.011752  -0.009842  -0.000566   0.003336   0.000107  -0.001096
    13  O   -0.000571   0.035399  -0.004182  -0.004582   0.000144  -0.001179
    14  C   -0.000376  -0.014752   0.002085   0.001845  -0.000163   0.002423
    15  H   -0.000220  -0.001194   0.000587  -0.000193  -0.000022   0.000463
    16  H   -0.000091   0.002744   0.000726  -0.000184  -0.000032  -0.001136
    17  H   -0.030630  -0.071697   0.006614   0.010675   0.000157   0.006438
    18  N   -0.233446   0.006857  -0.000315  -0.000934  -0.000002  -0.000692
    19  C    0.447903   0.010838  -0.000911  -0.001319  -0.000005  -0.000572
    20  O   -0.037563   0.000124  -0.000002  -0.000004  -0.000000  -0.000002
    21  C   -0.003615   0.006164  -0.000680  -0.000489  -0.000003  -0.000497
    22  H    0.014810   0.000839  -0.000073  -0.000048  -0.000000  -0.000031
    23  H   -0.002231   0.000758  -0.000211   0.000023  -0.000003  -0.000051
    24  H   -0.002787  -0.000927   0.000184   0.000000   0.000002   0.000054
    25  H    0.697509   0.005490  -0.000542  -0.000559  -0.000000  -0.000028
    26  H    0.005490   0.694572   0.321544  -0.158010   0.002759  -0.064229
    27  N   -0.000542   0.321544   7.145651   0.167193  -0.175585   0.165222
    28  C   -0.000559  -0.158010   0.167193   4.946320   0.465559  -0.040492
    29  O   -0.000000   0.002759  -0.175585   0.465559   8.267646  -0.030924
    30  C   -0.000028  -0.064229   0.165222  -0.040492  -0.030924   5.062753
    31  H   -0.000001  -0.041445  -0.105306   0.039343   0.035943   0.450783
    32  H   -0.000206  -0.008340  -0.041168  -0.005383  -0.002663   0.426954
    33  H    0.000080   0.030858  -0.044783  -0.012788  -0.004463   0.398821
    34  H   -0.000181  -0.030420  -0.232886   0.447991  -0.037233  -0.003825
              31         32         33         34
     1  C    0.005752   0.003656  -0.009573   0.029750
     2  C   -0.003270   0.003311  -0.005872   0.008299
     3  C   -0.001634  -0.000657   0.002867  -0.011986
     4  C    0.000403   0.000087   0.003772   0.005563
     5  C   -0.000325  -0.000141   0.002403  -0.005166
     6  C    0.001666  -0.004745   0.009378  -0.013998
     7  F   -0.000911   0.000033   0.000299  -0.003665
     8  H   -0.000333  -0.000013  -0.000367  -0.011752
     9  H    0.000003  -0.000023  -0.000026  -0.000030
    10  H    0.000027  -0.000007   0.000082   0.000027
    11  H   -0.000089   0.000157  -0.000882  -0.000203
    12  H    0.000803  -0.000854  -0.001354   0.000622
    13  O    0.000175  -0.000475  -0.000402  -0.000598
    14  C    0.000543   0.000766  -0.000629  -0.000436
    15  H    0.000076   0.000011  -0.000197  -0.000093
    16  H   -0.000485  -0.000352   0.000488  -0.000218
    17  H    0.000776   0.000862  -0.001098   0.005773
    18  N   -0.000074  -0.000204   0.000187  -0.000550
    19  C   -0.000047   0.000012   0.000038  -0.000580
    20  O   -0.000000  -0.000003   0.000002  -0.000001
    21  C   -0.000025  -0.000068   0.000070  -0.000054
    22  H   -0.000000  -0.000004   0.000001  -0.000003
    23  H   -0.000003  -0.000018   0.000010  -0.000210
    24  H   -0.000002   0.000015  -0.000004   0.000082
    25  H   -0.000001  -0.000206   0.000080  -0.000181
    26  H   -0.041445  -0.008340   0.030858  -0.030420
    27  N   -0.105306  -0.041168  -0.044783  -0.232886
    28  C    0.039343  -0.005383  -0.012788   0.447991
    29  O    0.035943  -0.002663  -0.004463  -0.037233
    30  C    0.450783   0.426954   0.398821  -0.003825
    31  H    0.490119  -0.028217  -0.029706   0.014710
    32  H   -0.028217   0.545176  -0.060643  -0.002156
    33  H   -0.029706  -0.060643   0.558559  -0.002763
    34  H    0.014710  -0.002156  -0.002763   0.696710
 Mulliken charges:
               1
     1  C   -0.852314
     2  C    0.259136
     3  C   -0.115464
     4  C   -0.441399
     5  C   -0.085463
     6  C    0.271202
     7  F   -0.115016
     8  H    0.236187
     9  H    0.227364
    10  H    0.188973
    11  H    0.228431
    12  H    0.229974
    13  O   -0.304248
    14  C    0.112568
    15  H    0.125826
    16  H    0.125614
    17  H    0.243597
    18  N   -0.192768
    19  C    0.129636
    20  O   -0.521430
    21  C   -0.366517
    22  H    0.170877
    23  H    0.174746
    24  H    0.167546
    25  H    0.149685
    26  H    0.239293
    27  N   -0.193124
    28  C    0.132553
    29  O   -0.521530
    30  C   -0.367098
    31  H    0.170751
    32  H    0.175298
    33  H    0.167636
    34  H    0.149479
 Sum of Mulliken charges =  -0.00000
 Mulliken charges with hydrogens summed into heavy atoms:
               1
     1  C   -0.852314
     2  C    0.495323
     3  C    0.111900
     4  C   -0.252427
     5  C    0.142968
     6  C    0.501176
     7  F   -0.115016
    13  O   -0.304248
    14  C    0.364007
    18  N    0.050829
    19  C    0.279321
    20  O   -0.521430
    21  C    0.146653
    27  N    0.046169
    28  C    0.282032
    29  O   -0.521530
    30  C    0.146587
 Electronic spatial extent (au):  <R**2>=           6328.4233
 Charge=             -0.0000 electrons
 Dipole moment (field-independent basis, Debye):
    X=              0.0299    Y=              1.5226    Z=             -0.0158  Tot=              1.5230
 Quadrupole moment (field-independent basis, Debye-Ang):
   XX=           -181.6495   YY=            -70.9894   ZZ=            -88.7764
   XY=             -0.0703   XZ=            -21.3122   YZ=             -0.0157
 Traceless Quadrupole moment (field-independent basis, Debye-Ang):
   XX=            -67.8444   YY=             42.8157   ZZ=             25.0287
   XY=             -0.0703   XZ=            -21.3122   YZ=             -0.0157
 Octapole moment (field-independent basis, Debye-Ang**2):
  XXX=              0.1984  YYY=            -87.7049  ZZZ=             -0.0982  XYY=              0.3335
  XXY=             73.8514  XXZ=             -0.5275  XZZ=             -0.0372  YZZ=              2.7937
  YYZ=              0.0043  XYZ=             25.6790
 Hexadecapole moment (field-independent basis, Debye-Ang**3):
 XXXX=          -7539.6054 YYYY=          -2030.2811 ZZZZ=           -611.2860 XXXY=             -2.2776
 XXXZ=           -653.8944 YYYX=             -1.1198 YYYZ=              0.0790 ZZZX=            -28.3065
 ZZZY=             -0.0425 XXYY=          -1382.6438 XXZZ=           -902.5481 YYZZ=           -531.0441
 XXYZ=             -0.0624 YYXZ=            -23.0129 ZZXY=              0.2953
 N-N= 1.168042158603D+03 E-N=-4.361277088936D+03  KE= 8.649506908126D+02
 D1PCM: PCM CHGder 1st derivatives, ID1Alg=3 FixD1E=F DoIter=F DoCFld=F I1PDM=0.
 Calling FoFJK, ICntrl=      2127 FMM=F ISym2X=0 I1Cent= 0 IOpClX= 0 NMat=1 NMatS=1 NMatT=0.
 ***** Axes restored to original set *****
 -------------------------------------------------------------------
 Center     Atomic                   Forces (Hartrees/Bohr)
 Number     Number              X              Y              Z
 -------------------------------------------------------------------
      1        6          -0.082239428   -0.003035149   -0.047427446
      2        6          -0.054596918    0.000959701    0.014873350
      3        6           0.002723477   -0.000182355    0.037534996
      4        6           0.039200880    0.000670998    0.022580897
      5        6           0.033463995   -0.002647936   -0.016481260
      6        6          -0.013978393    0.003322102   -0.055618538
      7        9           0.019875488    0.000347754    0.011479301
      8        1          -0.065654356    0.000444819    0.036182646
      9        1          -0.001763464   -0.000158160    0.073743049
     10        1           0.064246528    0.000618743    0.037102311
     11        1           0.062962129    0.000420080   -0.038421574
     12        1          -0.001524412   -0.000780948   -0.073983770
     13        8           0.017175886    0.000001131    0.009892565
     14        6           0.059921042   -0.000000903    0.034827945
     15        1          -0.039125054    0.071366453   -0.022689491
     16        1          -0.039122289   -0.071365599   -0.022694329
     17        1          -0.001361836   -0.009464018    0.001557840
     18        7          -0.003236310    0.014546924    0.002275998
     19        6          -0.036627592    0.050078336    0.046047319
     20        8           0.004331013   -0.000700946   -0.007390385
     21        6           0.030951139   -0.043676777   -0.038194148
     22        1          -0.000305048    0.070496951   -0.024316471
     23        1          -0.072865854   -0.029074933    0.005741661
     24        1           0.036908827   -0.006718631    0.069155301
     25        1           0.041398021   -0.046364276   -0.055304621
     26        1           0.000664865    0.009473791   -0.001931664
     27        7           0.000381724   -0.014536764   -0.003973164
     28        6           0.021685733   -0.049869570   -0.054872842
     29        8          -0.004240192    0.000666054    0.007444400
     30        6          -0.017705848    0.043512746    0.046018068
     31        1          -0.021096527   -0.070563603    0.011673284
     32        1          -0.031470956    0.029218306   -0.065908107
     33        1           0.078336383    0.006864685   -0.002542753
     34        1          -0.027312654    0.046130995    0.063619632
 -------------------------------------------------------------------
 Cartesian Forces:  Max     0.082239428 RMS     0.036911150
 -----------------------------------------------------------------------------------------------
                       Internal Coordinate Forces (Hartree/Bohr or radian)
  Cent   Atom   N1       Length/X         N2         Alpha/Y        N3         Beta/Z          J
 -----------------------------------------------------------------------------------------------
      1  C 
      2  C        1   0.167114(     1)
      3  C        2   0.231956(     2)      1   0.492752(    34)
      4  C        3   0.170705(     3)      2   0.489191(    35)      1  -0.006048(    66)     0
      5  C        4   0.054903(     4)      3   0.233496(    36)      2  -0.004740(    67)     0
      6  C        1   0.051269(     5)      2   0.297638(    37)      3  -0.003785(    68)     0
      7  F        1  -0.021147(     6)      2  -0.000013(    38)      3   0.000517(    69)     0
      8  H        2   0.074950(     7)      1  -0.002820(    39)      6  -0.000728(    70)     0
      9  H        3   0.073743(     8)      2  -0.003332(    40)      1   0.000259(    71)     0
     10  H        4   0.074190(     9)      3  -0.000016(    41)      2  -0.001013(    72)     0
     11  H        5   0.073738(    10)      4   0.003388(    42)      3  -0.000687(    73)     0
     12  H        6   0.073915(    11)      1  -0.002610(    43)      2  -0.005487(    74)     0
     13  O        1   0.001328(    12)      2  -0.000002(    44)      3   0.000004(    75)     0
     14  C       13   0.021149(    13)      1  -0.000004(    45)      2  -0.000009(    76)     0
     15  H       14   0.084419(    14)     13   0.006587(    46)      1   0.000105(    77)     0
     16  H       14   0.084418(    15)     13   0.006588(    47)      1  -0.000114(    78)     0
     17  H        7  -0.000705(    16)      1   0.002395(    48)      2  -0.000249(    79)     0
     18  N       17   0.008549(    17)      7   0.000074(    49)      1  -0.000248(    80)     0
     19  C       18   0.018020(    18)     17  -0.029397(    50)      7  -0.000244(    81)     0
     20  O       19  -0.000131(    19)     18   0.019974(    51)     17  -0.000130(    82)     0
     21  C       18   0.006519(    20)     17  -0.033215(    52)     19  -0.000026(    83)     0
     22  H       21   0.074292(    21)     18  -0.012235(    53)     17  -0.000014(    84)     0
     23  H       21   0.078623(    22)     18  -0.004663(    54)     17   0.000294(    85)     0
     24  H       21   0.078637(    23)     18  -0.004618(    55)     17  -0.000317(    86)     0
     25  H       19   0.083109(    24)     18   0.007315(    56)     17  -0.000041(    87)     0
     26  H        7  -0.000728(    25)      1   0.002299(    57)      2  -0.000234(    88)     0
     27  N       26   0.008531(    26)      7  -0.000071(    58)      1  -0.000241(    89)     0
     28  C       27   0.018015(    27)     26  -0.029415(    59)      7  -0.000245(    90)     0
     29  O       28  -0.000125(    28)     27   0.019971(    60)     26  -0.000129(    91)     0
     30  C       27   0.006512(    29)     26  -0.033245(    61)     28  -0.000023(    92)     0
     31  H       30   0.074287(    30)     27  -0.012239(    62)     26  -0.000015(    93)     0
     32  H       30   0.078625(    31)     27  -0.004664(    63)     26   0.000295(    94)     0
     33  H       30   0.078639(    32)     27  -0.004627(    64)     26  -0.000319(    95)     0
     34  H       28   0.083106(    33)     27   0.007305(    65)     26  -0.000038(    96)     0
 -----------------------------------------------------------------------------------------------
 Internal  Forces:  Max     0.492751764 RMS     0.093556982

 GradGradGradGradGradGradGradGradGradGradGradGradGradGradGradGradGradGrad
 Berny optimization.
 Search for a local minimum.
 Step number   1 out of a maximum of   43
 All quantities printed in internal units (Hartrees-Bohrs-Radians)
 Second derivative matrix not updated -- first step.
 ITU=  0
     Eigenvalues ---    0.00539   0.03554   0.03554   0.38245   0.38245
     Eigenvalues ---    0.45621   0.47512   0.47688   0.47688   0.47688
     Eigenvalues ---    0.47688   0.47688   0.47688   0.47688   0.47688
     Eigenvalues ---    0.47688   0.47688   0.47688   0.47688   0.47688
     Eigenvalues ---    0.47688   0.47688   0.47688   0.59506   0.59506
     Eigenvalues ---    0.67193   0.67193   0.67196   0.91086   0.91086
     Eigenvalues ---    1.04823   1.07882   2.01215
 RFO step:  Lambda=-2.22432421D-01 EMin= 5.39045724D-03
 Linear search not attempted -- first point.
 Maximum step size (   0.300) exceeded in Quadratic search.
    -- Step size scaled by   0.576
 Variable       Old X    -DE/DX   Delta X   Delta X   Delta X     New X
                                 (Linear)    (Quad)   (Total)
    B1        2.45664   0.16711   0.00000   0.07436   0.07436   2.53100
    B2        2.45664   0.23196   0.00000   0.08213   0.08213   2.53878
    B3        2.45664   0.17071   0.00000   0.07590   0.07590   2.53255
    B4        2.45664   0.05490   0.00000   0.06852   0.06852   2.52517
    B5        2.45664   0.05127   0.00000   0.06690   0.06690   2.52355
    B6        2.64562  -0.02115   0.00000  -0.01794  -0.01794   2.62768
    B7        1.88973   0.07495   0.00000   0.06169   0.06169   1.95141
    B8        1.88973   0.07374   0.00000   0.06069   0.06069   1.95042
    B9        1.88973   0.07419   0.00000   0.06106   0.06106   1.95079
   B10        1.88973   0.07374   0.00000   0.06069   0.06069   1.95042
   B11        1.89163   0.07392   0.00000   0.06099   0.06099   1.95262
   B12        7.93685   0.00133   0.00000   0.00335   0.00335   7.94020
   B13        2.26767   0.02115   0.00000   0.00958   0.00958   2.27725
   B14        1.88973   0.08442   0.00000   0.06948   0.06948   1.95921
   B15        1.88973   0.08442   0.00000   0.06948   0.06948   1.95921
   B16        4.00622  -0.00071   0.00000  -0.00157  -0.00157   4.00465
   B17        1.88973   0.00855   0.00000   0.00704   0.00704   1.89676
   B18        2.51334   0.01802   0.00000   0.01269   0.01269   2.52602
   B19        2.32436  -0.00013   0.00000  -0.00007  -0.00007   2.32430
   B20        2.74010   0.00652   0.00000   0.00620   0.00620   2.74631
   B21        1.88973   0.07429   0.00000   0.06115   0.06115   1.95087
   B22        1.88973   0.07862   0.00000   0.06471   0.06471   1.95444
   B23        1.88973   0.07864   0.00000   0.06472   0.06472   1.95445
   B24        1.88973   0.08311   0.00000   0.06840   0.06840   1.95813
   B25        4.00622  -0.00073   0.00000  -0.00162  -0.00162   4.00460
   B26        1.88973   0.00853   0.00000   0.00702   0.00702   1.89675
   B27        2.51334   0.01801   0.00000   0.01268   0.01268   2.52602
   B28        2.32436  -0.00013   0.00000  -0.00006  -0.00006   2.32430
   B29        2.74010   0.00651   0.00000   0.00620   0.00620   2.74630
   B30        1.88973   0.07429   0.00000   0.06114   0.06114   1.95087
   B31        1.88973   0.07863   0.00000   0.06471   0.06471   1.95444
   B32        1.88973   0.07864   0.00000   0.06472   0.06472   1.95445
   B33        1.88973   0.08311   0.00000   0.06840   0.06840   1.95813
         Item               Value     Threshold  Converged?
 Maximum Force            0.231956     0.000450     NO 
 RMS     Force            0.079694     0.000300     NO 
 Maximum Displacement     0.082132     0.001800     NO 
 RMS     Displacement     0.052223     0.001200     NO 
 Predicted change in Energy=-1.011916D-01
 GradGradGradGradGradGradGradGradGradGradGradGradGradGradGradGradGradGrad

 ---------------------------------------------------------------------------------------------------
                            Z-MATRIX (ANGSTROMS AND DEGREES)
   CD    Cent   Atom    N1       Length/X        N2       Alpha/Y        N3        Beta/Z          J
 ---------------------------------------------------------------------------------------------------
      1      1  C 
      2      2  C        1   1.339348(     1)
      3      3  C        2   1.343462(     2)      1  120.000(    34)
      4      4  C        3   1.340167(     3)      2  120.000(    35)      1    0.000(    66)      0
      5      5  C        4   1.336262(     4)      3  120.000(    36)      2    0.000(    67)      0
      6      6  C        1   1.335404(     5)      2  119.978(    37)      3    1.717(    68)      0
      7      7  F        1   1.390509(     6)      2  120.000(    38)      3 -180.000(    69)      0
      8      8  H        2   1.032644(     7)      1  120.000(    39)      6 -178.283(    70)      0
      9      9  H        3   1.032118(     8)      2  120.000(    40)      1  180.000(    71)      0
     10     10  H        4   1.032313(     9)      3  120.000(    41)      2  180.000(    72)      0
     11     11  H        5   1.032116(    10)      4  120.000(    42)      3  180.000(    73)      0
     12     12  H        6   1.033282(    11)      1  119.916(    43)      2 -177.772(    74)      0
     13     13  O        1   4.201775(    12)      2  120.000(    44)      3 -180.000(    75)      0
     14     14  C       13   1.205069(    13)      1  179.900(    45)      2  180.000(    76)      0
     15     15  H       14   1.036768(    14)     13  120.000(    46)      1  -90.045(    77)      0
     16     16  H       14   1.036768(    15)     13  120.000(    47)      1   90.045(    78)      0
     17     17  H        7   2.119167(    16)      1  100.000(    48)      2   90.000(    79)      0
     18     18  N       17   1.003723(    17)      7  179.900(    49)      1   90.000(    80)      0
     19     19  C       18   1.336714(    18)     17  119.500(    50)      7    0.000(    81)      0
     20     20  O       19   1.229965(    19)     18  123.200(    51)     17 -180.000(    82)      0
     21     21  C       18   1.453283(    20)     17  121.900(    52)     19 -180.000(    83)      0
     22     22  H       21   1.032357(    21)     18  110.700(    53)     17 -180.000(    84)      0
     23     23  H       21   1.034244(    22)     18  110.700(    54)     17  -60.000(    85)      0
     24     24  H       21   1.034250(    23)     18  110.700(    55)     17   60.000(    86)      0
     25     25  H       19   1.036197(    24)     18  113.467(    56)     17    0.000(    87)      0
     26     26  H        7   2.119140(    25)      1  100.000(    57)      2  -90.000(    88)      0
     27     27  N       26   1.003715(    26)      7  179.900(    58)      1  -90.000(    89)      0
     28     28  C       27   1.336712(    27)     26  119.500(    59)      7  180.000(    90)      0
     29     29  O       28   1.229966(    28)     27  123.200(    60)     26 -180.000(    91)      0
     30     30  C       27   1.453279(    29)     26  121.900(    61)     28 -180.000(    92)      0
     31     31  H       30   1.032355(    30)     27  110.700(    62)     26  180.000(    93)      0
     32     32  H       30   1.034245(    31)     27  110.700(    63)     26  -60.000(    94)      0
     33     33  H       30   1.034251(    32)     27  110.700(    64)     26   60.000(    95)      0
     34     34  H       28   1.036196(    33)     27  113.467(    65)     26    0.000(    96)      0
 ---------------------------------------------------------------------------------------------------
                         Z-Matrix orientation:                         
 ---------------------------------------------------------------------
 Center     Atomic      Atomic             Coordinates (Angstroms)
 Number     Number       Type             X           Y           Z
 ---------------------------------------------------------------------
      1          6           0        0.000000    0.000000    0.000000
      2          6           0        0.000000    0.000000    1.339348
      3          6           0        1.163472    0.000000    2.011079
      4          6           0        2.324091    0.000000    1.340996
      5          6           0        2.324091    0.000000    0.004734
      6          6           0        1.156234   -0.034664   -0.667252
      7          9           0       -1.204216    0.000000   -0.695255
      8          1           0       -0.894296    0.000000    1.855670
      9          1           0        1.163472    0.000000    3.043197
     10          1           0        3.218100    0.000000    1.857152
     11          1           0        3.217930    0.000000   -0.511324
     12          1           0        1.156495    0.000169   -1.699946
     13          8           0       -3.638844    0.000000   -2.100888
     14          6           0       -4.681412    0.000000   -2.705243
     15          1           0       -5.130245    0.897868   -2.964609
     16          1           0       -5.130245   -0.897867   -2.964609
     17          1           0       -1.522905    2.086972   -0.879249
     18          7           0       -1.672972    3.075445   -0.967914
     19          6           0       -1.189372    3.721674   -2.033429
     20          8           0       -1.333175    4.930290   -2.210579
     21          6           0       -2.405013    3.833868    0.032557
     22          1           0       -2.456110    4.830833   -0.230524
     23          1           0       -3.370224    3.475158    0.129282
     24          1           0       -1.941052    3.766143    0.954418
     25          1           0       -0.682256    3.105662   -2.694540
     26          1           0       -1.522901   -2.086946   -0.879247
     27          7           0       -1.672967   -3.075411   -0.967911
     28          6           0       -2.353391   -3.725638   -0.018687
     29          8           0       -2.576608   -4.934529   -0.058383
     30          6           0       -1.170567   -3.829590   -2.104057
     31          1           0       -1.422288   -4.827243   -2.019890
     32          1           0       -1.569490   -3.468935   -2.987488
     33          1           0       -0.140314   -3.759920   -2.162356
     34          1           0       -2.673895   -3.112470    0.752679
 ---------------------------------------------------------------------
                    Distance matrix (angstroms):
                    1          2          3          4          5
     1  C    0.000000
     2  C    1.339348   0.000000
     3  C    2.323383   1.343462   0.000000
     4  C    2.683220   2.324092   1.340167   0.000000
     5  C    2.324096   2.680036   2.317856   1.336262   0.000000
     6  C    1.335404   2.316144   2.678565   2.323392   1.347834
     7  F    1.390509   2.364264   3.595858   4.073729   3.597073
     8  H    2.059921   1.032644   2.063628   3.259280   3.712678
     9  H    3.258024   2.063194   1.032118   2.060225   3.252583
[...]
     6  C   -0.835915  -4.439349   0.001324  -0.486317   0.872809  10.562964
     7  F    0.652835  -0.249270  -0.041918   0.005797  -0.034775  -0.240795
     8  H   -0.140438   0.523121  -0.022981  -0.013387   0.011505  -0.062497
     9  H    0.022160  -0.025792   0.365533  -0.079536  -0.001986   0.035717
    10  H    0.020929  -0.008865  -0.054849   0.448596  -0.058703  -0.006790
    11  H    0.023211   0.038781  -0.004819  -0.082034   0.374176  -0.035389
    12  H   -0.134003  -0.067464   0.013752  -0.010761  -0.036227   0.531787
    13  O    0.010532  -0.006661  -0.000686   0.000011  -0.000795  -0.007713
    14  C    0.000296   0.000643   0.000195  -0.000041   0.000188   0.000632
    15  H   -0.000391  -0.000278   0.000018  -0.000008   0.000010   0.000383
    16  H   -0.000283   0.000250  -0.000007   0.000005   0.000008  -0.000206
    17  H    0.015993   0.009962  -0.023256   0.016476   0.014877  -0.034888
    18  N   -0.051984   0.008755   0.023827  -0.001162   0.005952   0.023539
    19  C    0.048633  -0.028579  -0.002796   0.000801  -0.012140   0.010959
    20  O    0.001359   0.000166  -0.000499   0.000022   0.000668  -0.001730
    21  C    0.003231   0.034877  -0.001851  -0.000303  -0.006076  -0.032321
    22  H    0.003621   0.001397  -0.000105   0.000017  -0.001025  -0.002113
    23  H    0.003966  -0.004174  -0.000256   0.000014  -0.000735   0.002182
    24  H   -0.001777   0.000820  -0.000463   0.001323   0.003251   0.000340
    25  H    0.021160  -0.011037  -0.003637   0.002202  -0.006935   0.008026
    26  H    0.016073  -0.046001   0.003672   0.020110  -0.020277   0.017889
    27  N   -0.045896   0.030001   0.009808  -0.002741   0.021127  -0.002836
    28  C    0.043395   0.022099  -0.007744   0.000994  -0.004509  -0.034969
    29  O    0.001388  -0.001603   0.000253  -0.000101  -0.000342   0.000202
    30  C    0.001929  -0.028863  -0.003864  -0.000723  -0.001430   0.032001
    31  H    0.004481  -0.001542  -0.000945  -0.000037  -0.000396   0.000594
    32  H    0.005334   0.003319  -0.000591  -0.000031  -0.000751  -0.006281
    33  H   -0.007374  -0.005490   0.002263   0.002109   0.001989   0.009926
    34  H    0.021052   0.008958  -0.007563   0.001923  -0.003439  -0.011259
               7          8          9         10         11         12
     1  C    0.652835  -0.140438   0.022160   0.020929   0.023211  -0.134003
     2  C   -0.249270   0.523121  -0.025792  -0.008865   0.038781  -0.067464
     3  C   -0.041918  -0.022981   0.365533  -0.054849  -0.004819   0.013752
     4  C    0.005797  -0.013387  -0.079536   0.448596  -0.082034  -0.010761
     5  C   -0.034775   0.011505  -0.001986  -0.058703   0.374176  -0.036227
     6  C   -0.240795  -0.062497   0.035717  -0.006790  -0.035389   0.531787
     7  F    8.992296  -0.006968  -0.001129   0.000563  -0.000939  -0.007654
     8  H   -0.006968   0.459140  -0.002613   0.001142   0.001253   0.000971
     9  H   -0.001129  -0.002613   0.436937  -0.006800   0.000978   0.001251
    10  H    0.000563   0.001142  -0.006800   0.453099  -0.007244   0.001388
    11  H   -0.000939   0.001253   0.000978  -0.007244   0.440478  -0.005308
    12  H   -0.007654   0.000971   0.001251   0.001388  -0.005308   0.467676
    13  O    0.002508  -0.000209  -0.000002  -0.000001  -0.000001  -0.000211
    14  C    0.000301   0.000015   0.000003   0.000002   0.000003   0.000023
    15  H   -0.000015   0.000011   0.000000  -0.000000   0.000000   0.000008
    16  H   -0.000041  -0.000009   0.000000   0.000000  -0.000001   0.000012
    17  H    0.017617  -0.004227  -0.000050  -0.000456  -0.000022   0.003933
    18  N   -0.020068  -0.001009   0.000234  -0.000050  -0.000055   0.001629
    19  C    0.000625   0.002117  -0.000129   0.000168  -0.000231  -0.002511
    20  O   -0.000037   0.000094  -0.000022  -0.000001   0.000016   0.000122
    21  C    0.003167  -0.000864   0.000058   0.000049  -0.000076   0.000306
    22  H   -0.000314   0.000358   0.000003   0.000008   0.000010  -0.000176
    23  H   -0.000285  -0.000339   0.000070   0.000002  -0.000013   0.000072
    24  H    0.000920  -0.002069  -0.000458  -0.000017   0.000051  -0.000480
    25  H   -0.003282   0.000412  -0.000085  -0.000026   0.000146  -0.008837
    26  H    0.026758   0.005525  -0.000593  -0.000270  -0.000068  -0.005070
    27  N   -0.019636   0.002187  -0.000051  -0.000101   0.000351  -0.000817
    28  C   -0.001874  -0.003301  -0.000130   0.000164  -0.000163   0.002191
    29  O    0.000035   0.000147   0.000017  -0.000002  -0.000017   0.000057
    30  C    0.001996  -0.000450   0.000062  -0.000002   0.000170  -0.001694
    31  H   -0.000546  -0.000146   0.000011   0.000009  -0.000002   0.000432
    32  H   -0.000193   0.000051  -0.000015   0.000000   0.000083  -0.000515
    33  H    0.000556  -0.000340   0.000017   0.000017  -0.000649  -0.001240
    34  H   -0.003206  -0.008725   0.000137  -0.000024  -0.000081   0.000403
              13         14         15         16         17         18
     1  C    0.010532   0.000296  -0.000391  -0.000283   0.015993  -0.051984
     2  C   -0.006661   0.000643  -0.000278   0.000250   0.009962   0.008755
     3  C   -0.000686   0.000195   0.000018  -0.000007  -0.023256   0.023827
     4  C    0.000011  -0.000041  -0.000008   0.000005   0.016476  -0.001162
     5  C   -0.000795   0.000188   0.000010   0.000008   0.014877   0.005952
     6  C   -0.007713   0.000632   0.000383  -0.000206  -0.034888   0.023539
     7  F    0.002508   0.000301  -0.000015  -0.000041   0.017617  -0.020068
     8  H   -0.000209   0.000015   0.000011  -0.000009  -0.004227  -0.001009
     9  H   -0.000002   0.000003   0.000000   0.000000  -0.000050   0.000234
    10  H   -0.000001   0.000002  -0.000000   0.000000  -0.000456  -0.000050
    11  H   -0.000001   0.000003   0.000000  -0.000001  -0.000022  -0.000055
    12  H   -0.000211   0.000023   0.000008   0.000012   0.003933   0.001629
    13  O    8.160193   0.264980  -0.085215  -0.085136   0.022722  -0.001762
    14  C    0.264980   4.901102   0.401319   0.401251  -0.008421   0.000790
    15  H   -0.085215   0.401319   0.644951  -0.098131   0.002183   0.000337
    16  H   -0.085136   0.401251  -0.098131   0.645021  -0.000762   0.000184
    17  H    0.022722  -0.008421   0.002183  -0.000762   0.614593   0.302252
    18  N   -0.001762   0.000790   0.000337   0.000184   0.302252   7.150446
    19  C   -0.002972   0.000860  -0.000359  -0.000026  -0.118552   0.152539
    20  O    0.000057  -0.000153   0.000068  -0.000023   0.007512  -0.161759
    21  C   -0.000581   0.001810  -0.000777   0.000270  -0.070971   0.110755
    22  H    0.000135   0.000297  -0.000356   0.000057  -0.034165  -0.103821
    23  H   -0.000384  -0.000048  -0.000085  -0.000073  -0.004552  -0.041365
    24  H   -0.000150  -0.000181   0.000175  -0.000070   0.027056  -0.045494
    25  H   -0.000363  -0.000333   0.000252  -0.000167  -0.004693  -0.200702
    26  H    0.022561  -0.008762  -0.000751   0.002226  -0.058158   0.009314
    27  N   -0.001886   0.000868   0.000202   0.000351   0.008894  -0.000483
    28  C   -0.002884   0.000926  -0.000029  -0.000388   0.007258  -0.001058
    29  O    0.000059  -0.000155  -0.000024   0.000065   0.000108  -0.000001
    30  C   -0.000316   0.001874   0.000261  -0.000789   0.005318  -0.000854
    31  H    0.000167   0.000298   0.000058  -0.000353   0.000416  -0.000065
    32  H   -0.000477  -0.000048  -0.000078  -0.000079   0.000723  -0.000183
    33  H   -0.000169  -0.000196  -0.000071   0.000181  -0.000857   0.000131
    34  H   -0.000374  -0.000360  -0.000169   0.000260   0.002318  -0.000516
              19         20         21         22         23         24
     1  C    0.048633   0.001359   0.003231   0.003621   0.003966  -0.001777
     2  C   -0.028579   0.000166   0.034877   0.001397  -0.004174   0.000820
     3  C   -0.002796  -0.000499  -0.001851  -0.000105  -0.000256  -0.000463
     4  C    0.000801   0.000022  -0.000303   0.000017   0.000014   0.001323
     5  C   -0.012140   0.000668  -0.006076  -0.001025  -0.000735   0.003251
     6  C    0.010959  -0.001730  -0.032321  -0.002113   0.002182   0.000340
     7  F    0.000625  -0.000037   0.003167  -0.000314  -0.000285   0.000920
     8  H    0.002117   0.000094  -0.000864   0.000358  -0.000339  -0.002069
     9  H   -0.000129  -0.000022   0.000058   0.000003   0.000070  -0.000458
    10  H    0.000168  -0.000001   0.000049   0.000008   0.000002  -0.000017
    11  H   -0.000231   0.000016  -0.000076   0.000010  -0.000013   0.000051
    12  H   -0.002511   0.000122   0.000306  -0.000176   0.000072  -0.000480
    13  O   -0.002972   0.000057  -0.000581   0.000135  -0.000384  -0.000150
    14  C    0.000860  -0.000153   0.001810   0.000297  -0.000048  -0.000181
    15  H   -0.000359   0.000068  -0.000777  -0.000356  -0.000085   0.000175
    16  H   -0.000026  -0.000023   0.000270   0.000057  -0.000073  -0.000070
    17  H   -0.118552   0.007512  -0.070971  -0.034165  -0.004552   0.027056
    18  N    0.152539  -0.161759   0.110755  -0.103821  -0.041365  -0.045494
    19  C    4.989462   0.450974  -0.042856   0.033729  -0.007698  -0.011674
    20  O    0.450974   8.238129  -0.029604   0.030658  -0.002003  -0.003147
    21  C   -0.042856  -0.029604   5.268069   0.442837   0.410060   0.384118
    22  H    0.033729   0.030658   0.442837   0.483597  -0.027500  -0.028950
    23  H   -0.007698  -0.002003   0.410060  -0.027500   0.543416  -0.055712
    24  H   -0.011674  -0.003147   0.384118  -0.028950  -0.055712   0.555836
    25  H    0.435036  -0.037301  -0.004741   0.009632  -0.002092  -0.001559
    26  H    0.007315   0.000085   0.005033   0.000449   0.000666  -0.000687
    27  N   -0.001025  -0.000001  -0.000808  -0.000062  -0.000190   0.000124
    28  C   -0.000861  -0.000003  -0.000282  -0.000014   0.000004   0.000017
    29  O   -0.000004   0.000000  -0.000002  -0.000000  -0.000002   0.000001
    30  C   -0.000340  -0.000001  -0.000531  -0.000016  -0.000048   0.000051
    31  H   -0.000013  -0.000000  -0.000012   0.000001  -0.000003  -0.000001
    32  H   -0.000002  -0.000002  -0.000057  -0.000003  -0.000010   0.000005
    33  H    0.000045   0.000001   0.000065   0.000001   0.000003  -0.000003
    34  H   -0.000276   0.000000   0.000320   0.000023  -0.000181   0.000031
              25         26         27         28         29         30
     1  C    0.021160   0.016073  -0.045896   0.043395   0.001388   0.001929
     2  C   -0.011037  -0.046001   0.030001   0.022099  -0.001603  -0.028863
     3  C   -0.003637   0.003672   0.009808  -0.007744   0.000253  -0.003864
     4  C    0.002202   0.020110  -0.002741   0.000994  -0.000101  -0.000723
     5  C   -0.006935  -0.020277   0.021127  -0.004509  -0.000342  -0.001430
     6  C    0.008026   0.017889  -0.002836  -0.034969   0.000202   0.032001
     7  F   -0.003282   0.026758  -0.019636  -0.001874   0.000035   0.001996
     8  H    0.000412   0.005525   0.002187  -0.003301   0.000147  -0.000450
     9  H   -0.000085  -0.000593  -0.000051  -0.000130   0.000017   0.000062
    10  H   -0.000026  -0.000270  -0.000101   0.000164  -0.000002  -0.000002
    11  H    0.000146  -0.000068   0.000351  -0.000163  -0.000017   0.000170
    12  H   -0.008837  -0.005070  -0.000817   0.002191   0.000057  -0.001694
    13  O   -0.000363   0.022561  -0.001886  -0.002884   0.000059  -0.000316
    14  C   -0.000333  -0.008762   0.000868   0.000926  -0.000155   0.001874
    15  H    0.000252  -0.000751   0.000202  -0.000029  -0.000024   0.000261
    16  H   -0.000167   0.002226   0.000351  -0.000388   0.000065  -0.000789
    17  H   -0.004693  -0.058158   0.008894   0.007258   0.000108   0.005318
    18  N   -0.200702   0.009314  -0.000483  -0.001058  -0.000001  -0.000854
    19  C    0.435036   0.007315  -0.001025  -0.000861  -0.000004  -0.000340
    20  O   -0.037301   0.000085  -0.000001  -0.000003   0.000000  -0.000001
    21  C   -0.004741   0.005033  -0.000808  -0.000282  -0.000002  -0.000531
    22  H    0.009632   0.000449  -0.000062  -0.000014  -0.000000  -0.000016
    23  H   -0.002092   0.000666  -0.000190   0.000004  -0.000002  -0.000048
    24  H   -0.001559  -0.000687   0.000124   0.000017   0.000001   0.000051
    25  H    0.645191   0.002246  -0.000506  -0.000275   0.000001   0.000324
    26  H    0.002246   0.619440   0.294481  -0.117204   0.007610  -0.067025
    27  N   -0.000506   0.294481   7.151066   0.155496  -0.161880   0.114759
    28  C   -0.000275  -0.117204   0.155496   4.985385   0.450701  -0.044947
    29  O    0.000001   0.007610  -0.161880   0.450701   8.238432  -0.029732
    30  C    0.000324  -0.067025   0.114759  -0.044947  -0.029732   5.263227
    31  H    0.000022  -0.034751  -0.103423   0.033870   0.030622   0.442473
    32  H   -0.000180  -0.004483  -0.042609  -0.008068  -0.001989   0.411156
    33  H    0.000033   0.026007  -0.045810  -0.010980  -0.003202   0.384310
    34  H   -0.000070  -0.004659  -0.200215   0.435222  -0.037138  -0.004699
              31         32         33         34
     1  C    0.004481   0.005334  -0.007374   0.021052
     2  C   -0.001542   0.003319  -0.005490   0.008958
     3  C   -0.000945  -0.000591   0.002263  -0.007563
     4  C   -0.000037  -0.000031   0.002109   0.001923
     5  C   -0.000396  -0.000751   0.001989  -0.003439
     6  C    0.000594  -0.006281   0.009926  -0.011259
     7  F   -0.000546  -0.000193   0.000556  -0.003206
     8  H   -0.000146   0.000051  -0.000340  -0.008725
     9  H    0.000011  -0.000015   0.000017   0.000137
    10  H    0.000009   0.000000   0.000017  -0.000024
    11  H   -0.000002   0.000083  -0.000649  -0.000081
    12  H    0.000432  -0.000515  -0.001240   0.000403
    13  O    0.000167  -0.000477  -0.000169  -0.000374
    14  C    0.000298  -0.000048  -0.000196  -0.000360
    15  H    0.000058  -0.000078  -0.000071  -0.000169
    16  H   -0.000353  -0.000079   0.000181   0.000260
    17  H    0.000416   0.000723  -0.000857   0.002318
    18  N   -0.000065  -0.000183   0.000131  -0.000516
    19  C   -0.000013  -0.000002   0.000045  -0.000276
    20  O   -0.000000  -0.000002   0.000001   0.000000
    21  C   -0.000012  -0.000057   0.000065   0.000320
    22  H    0.000001  -0.000003   0.000001   0.000023
    23  H   -0.000003  -0.000010   0.000003  -0.000181
    24  H   -0.000001   0.000005  -0.000003   0.000031
    25  H    0.000022  -0.000180   0.000033  -0.000070
    26  H   -0.034751  -0.004483   0.026007  -0.004659
    27  N   -0.103423  -0.042609  -0.045810  -0.200215
    28  C    0.033870  -0.008068  -0.010980   0.435222
    29  O    0.030622  -0.001989  -0.003202  -0.037138
    30  C    0.442473   0.411156   0.384310  -0.004699
    31  H    0.483845  -0.027451  -0.028792   0.009649
    32  H   -0.027451   0.543393  -0.055926  -0.002088
    33  H   -0.028792  -0.055926   0.556102  -0.001584
    34  H    0.009649  -0.002088  -0.001584   0.644396
 Mulliken charges:
               1
     1  C   -0.493582
     2  C    0.124260
     3  C   -0.246960
     4  C   -0.455817
     5  C   -0.221265
     6  C    0.130094
     7  F   -0.073029
     8  H    0.262524
     9  H    0.256202
    10  H    0.218064
    11  H    0.257403
    12  H    0.256954
    13  O   -0.284977
    14  C    0.040025
    15  H    0.136501
    16  H    0.136401
    17  H    0.283819
    18  N   -0.158292
    19  C    0.099779
    20  O   -0.493648
    21  C   -0.472311
    22  H    0.191788
    23  H    0.187293
    24  H    0.178773
    25  H    0.162140
    26  H    0.281297
    27  N   -0.158742
    28  C    0.101962
    29  O   -0.493504
    30  C   -0.473587
    31  H    0.191531
    32  H    0.188046
    33  H    0.178923
    34  H    0.161936
 Sum of Mulliken charges =  -0.00000
 Mulliken charges with hydrogens summed into heavy atoms:
               1
     1  C   -0.493582
     2  C    0.386784
     3  C    0.009242
     4  C   -0.237754
     5  C    0.036137
     6  C    0.387048
     7  F   -0.073029
    13  O   -0.284977
    14  C    0.312928
    18  N    0.125527
    19  C    0.261919
    20  O   -0.493648
    21  C    0.085543
    27  N    0.122556
    28  C    0.263897
    29  O   -0.493504
    30  C    0.084913
 Electronic spatial extent (au):  <R**2>=           6732.4035
 Charge=             -0.0000 electrons
 Dipole moment (field-independent basis, Debye):
    X=              0.0358    Y=              1.2213    Z=             -0.0168  Tot=              1.2220
 Quadrupole moment (field-independent basis, Debye-Ang):
   XX=           -180.2222   YY=            -67.9311   ZZ=            -89.3432
   XY=             -0.1576   XZ=            -19.6404   YZ=             -0.0388
 Traceless Quadrupole moment (field-independent basis, Debye-Ang):
   XX=            -67.7234   YY=             44.5677   ZZ=             23.1556
   XY=             -0.1576   XZ=            -19.6404   YZ=             -0.0388
 Octapole moment (field-independent basis, Debye-Ang**2):
  XXX=             -0.0950  YYY=           -120.3541  ZZZ=             -0.1154  XYY=              0.5646
  XXY=             57.6841  XXZ=             -0.5837  XZZ=             -0.0105  YZZ=              5.7146
  YYZ=              0.0361  XYZ=             23.8663
 Hexadecapole moment (field-independent basis, Debye-Ang**3):
 XXXX=          -7490.9672 YYYY=          -2156.3805 ZZZZ=           -662.8869 XXXY=             -3.7617
 XXXZ=           -620.4586 YYYX=             -2.5333 YYYZ=             -0.0193 ZZZX=            -10.7549
 ZZZY=             -0.0744 XXYY=          -1472.9006 XXZZ=           -931.8454 YYZZ=           -610.9147
 XXYZ=             -0.5432 YYXZ=            -15.4585 ZZXY=              0.2600
 N-N= 1.126707010976D+03 E-N=-4.275925796821D+03  KE= 8.611945050279D+02
 1\1\GINC-LOCALHOST\POpt\RM062X\6-311++G(d,p)\C11H17F1N2O3\LYWU\23-Mar-
 2024\1\\# opt=z-matrix 6-311++g(d,p) m062x scrf=(solvent=water)\\test\
 \0,1\C\C,1,B1\C,2,B2,1,120.00000011\C,3,B3,2,120.,1,0.,0\C,4,B4,3,119.
 99999989,2,0.,0\C,1,B5,2,119.97770821,3,1.71722694,0\F,1,B6,2,119.9999
 999,3,-180.,0\H,2,B7,1,120.00000011,6,-178.28277306,0\H,3,B8,2,120.000
 00011,1,180.,0\H,4,B9,3,120.,2,180.,0\H,5,B10,4,120.00000011,3,180.,0\
 H,6,B11,1,119.91553063,2,-177.77151684,0\O,1,B12,2,119.9999999,3,-180.
 ,0\C,13,B13,1,179.90000005,2,180.,0\H,14,B14,13,119.99996989,1,-90.044
 90481,0\H,14,B15,13,119.99996989,1,90.04490481,0\H,7,B16,1,100.0000000
 1,2,90.,0\N,17,B17,7,179.9,1,90.,0\C,18,B18,17,119.5,7,0.,0\O,19,B19,1
 8,123.2,17,-180.,0\C,18,B20,17,121.9,19,-180.,0\H,21,B21,18,110.7,17,-
 180.,0\H,21,B22,18,110.7,17,-60.,0\H,21,B23,18,110.7,17,60.,0\H,19,B24
 ,18,113.46721803,17,0.,0\H,7,B25,1,100.00000001,2,-90.,0\N,26,B26,7,17
 9.9,1,-90.,0\C,27,B27,26,119.5,7,180.,0\O,28,B28,27,123.2,26,-180.,0\C
 ,27,B29,26,121.9,28,-180.,0\H,30,B30,27,110.7,26,180.,0\H,30,B31,27,11
 0.7,26,-60.,0\H,30,B32,27,110.7,26,60.,0\H,28,B33,27,113.46721803,26,0
 .,0\\B1=1.38807136\B2=1.3906719\B3=1.38779846\B4=1.3878296\B5=1.388069
 35\B6=1.35639822\B7=1.08417904\B8=1.08258659\B9=1.0831721\B10=1.082589
 31\B11=1.08425022\B12=4.7771886\B13=1.20488702\B14=1.10061538\B15=1.10
 061522\B16=2.12717732\B17=1.00838301\B18=1.34966447\B19=1.22292049\B20
 =1.45348114\B21=1.08460116\B22=1.09181576\B23=1.09189597\B24=1.0988449
 1\B25=2.12311584\B26=1.0083911\B27=1.34965465\B28=1.22292981\B29=1.453
 46944\B30=1.08460198\B31=1.09181953\B32=1.09190148\B33=1.09885211\\Ver
 sion=ES64L-G16RevB.01\State=1-A\HF=-864.3056757\RMSD=5.592e-09\RMSF=5.
 179e-03\Dipole=0.4133323,0.0154722,0.2450404\Quadrupole=28.44593,-47.5
 342732,19.0883432,-9.9201236,8.1159768,17.2391076\PG=C01 [X(C11H17F1N2
 O3)]\\@


 CONFIDENCE: THAT QUIET ASSURED FEELING YOU HAVE
 JUST BEFORE YOU FALL FLAT ON YOUR FACE.
 Job cpu time:       0 days  8 hours 11 minutes 10.9 seconds.
 Elapsed time:       0 days  1 hours  1 minutes 44.7 seconds.
 File lengths (MBytes):  RWF=    464 Int=      0 D2E=      0 Chk=     22 Scr=      1
 Normal termination of Gaussian 16 at Sat Mar 23 19:36:01 2024.
