 Entering Gaussian System, Link 0=g16
 Input=model_H1.gjf
 Output=model_H1.log
 Initial command:
 /home/zjxu/prog/g16/l1.exe "/home/zjxu/zjhan/5_model/HF/water/Gau-47887.inp" -scrdir="/home/zjxu/zjhan/5_model/HF/water/"
 Entering Link 1 = /home/zjxu/prog/g16/l1.exe PID=     47888.
  
 Copyright (c) 1988-2017, Gaussian, Inc.  All Rights Reserved.
  
 This is part of the Gaussian(R) 16 program.  It is based on
 the Gaussian(R) 09 system (copyright 2009, Gaussian, Inc.),
 the Gaussian(R) 03 system (copyright 2003, Gaussian, Inc.),
 the Gaussian(R) 98 system (copyright 1998, Gaussian, Inc.),
 the Gaussian(R) 94 system (copyright 1995, Gaussian, Inc.),
 the Gaussian 92(TM) system (copyright 1992, Gaussian, Inc.),
 the Gaussian 90(TM) system (copyright 1990, Gaussian, Inc.),
 the Gaussian 88(TM) system (copyright 1988, Gaussian, Inc.),
 the Gaussian 86(TM) system (copyright 1986, Carnegie Mellon
 University), and the Gaussian 82(TM) system (copyright 1983,
 Carnegie Mellon University). Gaussian is a federally registered
 trademark of Gaussian, Inc.
  
 This software contains proprietary and confidential information,
 including trade secrets, belonging to Gaussian, Inc.
  
 This software is provided under written license and may be
 used, copied, transmitted, or stored only in accord with that
 written license.
  
 The following legend is applicable only to US Government
 contracts under FAR:
  
                    RESTRICTED RIGHTS LEGEND
  
 Use, reproduction and disclosure by the US Government is
 subject to restrictions as set forth in subparagraphs (a)
 and (c) of the Commercial Computer Software - Restricted
 Rights clause in FAR 52.227-19.
  
 Gaussian, Inc.
 340 Quinnipiac St., Bldg. 40, Wallingford CT 06492
  
  
 ---------------------------------------------------------------
 Warning -- This program may not be used in any manner that
 competes with the business of Gaussian, Inc. or will provide
 assistance to any competitor of Gaussian, Inc.  The licensee
 of this program is prohibited from giving any competitor of
 Gaussian, Inc. access to this program.  By using this program,
 the user acknowledges that Gaussian, Inc. is engaged in the
 business of creating and licensing software in the field of
 computational chemistry and represents and warrants to the
 licensee that it is not a competitor of Gaussian, Inc. and that
 it will not use this program in any manner prohibited above.
 ---------------------------------------------------------------
  

 Cite this work as:
 Gaussian 16, Revision B.01,
 M. J. Frisch, G. W. Trucks, H. B. Schlegel, G. E. Scuseria, 
 M. A. Robb, J. R. Cheeseman, G. Scalmani, V. Barone, 
 G. A. Petersson, H. Nakatsuji, X. Li, M. Caricato, A. V. Marenich, 
 J. Bloino, B. G. Janesko, R. Gomperts, B. Mennucci, H. P. Hratchian, 
 J. V. Ortiz, A. F. Izmaylov, J. L. Sonnenberg, D. Williams-Young, 
 F. Ding, F. Lipparini, F. Egidi, J. Goings, B. Peng, A. Petrone, 
 T. Henderson, D. Ranasinghe, V. G. Zakrzewski, J. Gao, N. Rega, 
 G. Zheng, W. Liang, M. Hada, M. Ehara, K. Toyota, R. Fukuda, 
 J. Hasegawa, M. Ishida, T. Nakajima, Y. Honda, O. Kitao, H. Nakai, 
 T. Vreven, K. Throssell, J. A. Montgomery, Jr., J. E. Peralta, 
 F. Ogliaro, M. J. Bearpark, J. J. Heyd, E. N. Brothers, K. N. Kudin, 
 V. N. Staroverov, T. A. Keith, R. Kobayashi, J. Normand, 
 K. Raghavachari, A. P. Rendell, J. C. Burant, S. S. Iyengar, 
 J. Tomasi, M. Cossi, J. M. Millam, M. Klene, C. Adamo, R. Cammi, 
 J. W. Ochterski, R. L. Martin, K. Morokuma, O. Farkas, 
 J. B. Foresman, and D. J. Fox, Gaussian, Inc., Wallingford CT, 2016.
 
 ******************************************
 Gaussian 16:  ES64L-G16RevB.01 20-Dec-2017
                29-Mar-2024 
 ******************************************
 %mem=2GB
 %nproc=2
 Will use up to    2 processors via shared memory.
 %chk=model_H1
 -------------------------------------------------------
 # m062x 6-311++G(d,p) opt=z-matrix scrf=(solvent=water)
 -------------------------------------------------------
 1/10=7,18=40,26=3,38=1/1,3;
 2/12=2,17=6,18=5,29=3,40=1/2;
 3/5=4,6=6,7=1111,11=2,25=1,30=1,70=2201,71=1,72=1,74=-55/1,2,3;
 4//1;
 5/5=2,38=5,53=1/2;
 6/7=2,8=2,9=2,10=2,28=1/1;
 7/29=1/1,2,3,16;
 1/10=7,18=40,26=3/3(2);
 2/29=3/2;
 99//99;
 2/29=3/2;
 3/5=4,6=6,7=1111,11=2,25=1,30=1,70=2205,71=1,72=1,74=-55/1,2,3;
 4/5=5,16=3,69=1/1;
 5/5=2,38=5,53=1/2;
 7//1,2,3,16;
 1/18=40,26=3/3(-5);
 2/29=3/2;
 6/7=2,8=2,9=2,10=2,19=2,28=1/1;
 99/9=1/99;
 ----
 test
 ----
 Symbolic Z-matrix:
 Charge =  0 Multiplicity = 1
 C1
 C2                   1    d1
 C3                   2    d2       1     120. 
 C4                   3    d3       2     120.     1     0.       0
 C5                   4    d4       3     120.     2     0.       0
 C6                   5    d5       4     120.     3     0.       0
 F7                   1    d6       2     120.     3     180.     0
 H8                   2    d7       3     120.     4     180.     0
 H9                   3    d8       4     120.     5     180.     0
 H10                  4    d9       5     120.     6     180.     0
 H11                  5    d10      6     120.     1     180.     0
 H12                  6    d11      1     120.     2     180.     0
 O13                  7    d12      1     179.9    3     180.     0
 C14                  13   d13      1     179.9    2     180.     0
 H15                  14   d14      1     120.     2     90.      0
 H16                  14   d15      1     120.     2    -90.      0
 H17                  7    d16      1     100.     2     90.      0
 F18                  17   d17      7     160.     1     0.       0
       Variables:
  d1                    1.3                      
  d2                    1.3                      
  d3                    1.3                      
  d4                    1.3                      
  d5                    1.3                      
  d6                    1.4                      
  d7                    1.                       
  d8                    1.                       
  d9                    1.                       
  d10                   1.                       
  d11                   1.                       
  d12                   2.8                      
  d13                   1.2                      
  d14                   1.                       
  d15                   1.                       
  d16                   2.3                      
  d17                   0.9                      
 

 GradGradGradGradGradGradGradGradGradGradGradGradGradGradGradGradGradGrad
 Berny optimization.
 Initialization pass.
                       ----------------------------
                       !    Initial Parameters    !
                       ! (Angstroms and Degrees)  !
 ----------------------                            ----------------------
 !      Name          Value   Derivative information (Atomic Units)     !
 ------------------------------------------------------------------------
 !       d1          1.3      estimate D2E/DX2                          !
 !       d2          1.3      estimate D2E/DX2                          !
 !       d3          1.3      estimate D2E/DX2                          !
 !       d4          1.3      estimate D2E/DX2                          !
 !       d5          1.3      estimate D2E/DX2                          !
 !       d6          1.4      estimate D2E/DX2                          !
 !       d7          1.0      estimate D2E/DX2                          !
 !       d8          1.0      estimate D2E/DX2                          !
 !       d9          1.0      estimate D2E/DX2                          !
 !       d10         1.0      estimate D2E/DX2                          !
 !       d11         1.0      estimate D2E/DX2                          !
 !       d12         2.8      estimate D2E/DX2                          !
 !       d13         1.2      estimate D2E/DX2                          !
 !       d14         1.0      estimate D2E/DX2                          !
 !       d15         1.0      estimate D2E/DX2                          !
 !       d16         2.3      estimate D2E/DX2                          !
 !       d17         0.9      estimate D2E/DX2                          !
 ------------------------------------------------------------------------
 Trust Radius=3.00D-01 FncErr=1.00D-07 GrdErr=1.00D-06 EigMax=2.50D+02 EigMin=1.00D-04
 Number of steps in this run=     27 maximum allowed number of steps=    100.
 GradGradGradGradGradGradGradGradGradGradGradGradGradGradGradGradGradGrad

 ---------------------------------------------------------------------------------------------------
                            Z-MATRIX (ANGSTROMS AND DEGREES)
   CD    Cent   Atom    N1       Length/X        N2       Alpha/Y        N3        Beta/Z          J
 ---------------------------------------------------------------------------------------------------
      1      1  C 
      2      2  C        1   1.300000(     1)
      3      3  C        2   1.300000(     2)      1  120.000(    18)
      4      4  C        3   1.300000(     3)      2  120.000(    19)      1    0.000(    34)      0
      5      5  C        4   1.300000(     4)      3  120.000(    20)      2    0.000(    35)      0
      6      6  C        5   1.300000(     5)      4  120.000(    21)      3    0.000(    36)      0
      7      7  F        1   1.400000(     6)      2  120.000(    22)      3  180.000(    37)      0
      8      8  H        2   1.000000(     7)      3  120.000(    23)      4  180.000(    38)      0
      9      9  H        3   1.000000(     8)      4  120.000(    24)      5  180.000(    39)      0
     10     10  H        4   1.000000(     9)      5  120.000(    25)      6  180.000(    40)      0
     11     11  H        5   1.000000(    10)      6  120.000(    26)      1  180.000(    41)      0
     12     12  H        6   1.000000(    11)      1  120.000(    27)      2  180.000(    42)      0
     13     13  O        7   2.800000(    12)      1  179.900(    28)      3  180.000(    43)      0
     14     14  C       13   1.200000(    13)      1  179.900(    29)      2  180.000(    44)      0
     15     15  H       14   1.000000(    14)      1  120.000(    30)      2   90.000(    45)      0
     16     16  H       14   1.000000(    15)      1  120.000(    31)      2  -90.000(    46)      0
     17     17  H        7   2.300000(    16)      1  100.000(    32)      2   90.000(    47)      0
     18     18  F       17   0.900000(    17)      7  160.000(    33)      1    0.000(    48)      0
 ---------------------------------------------------------------------------------------------------
                         Z-Matrix orientation:                         
 ---------------------------------------------------------------------
 Center     Atomic      Atomic             Coordinates (Angstroms)
 Number     Number       Type             X           Y           Z
 ---------------------------------------------------------------------
      1          6           0        0.000000    0.000000    0.000000
      2          6           0        0.000000    0.000000    1.300000
      3          6           0        1.125833    0.000000    1.950000
      4          6           0        2.251666    0.000000    1.300000
      5          6           0        2.251666    0.000000   -0.000000
      6          6           0        1.125833    0.000000   -0.650000
      7          9           0       -1.212436   -0.000000   -0.700000
      8          1           0       -0.866025   -0.000000    1.800000
      9          1           0        1.125833   -0.000000    2.950000
     10          1           0        3.117691   -0.000000    1.800000
     11          1           0        3.117691   -0.000000   -0.500000
     12          1           0        1.125833   -0.000000   -1.650000
     13          8           0       -3.634860   -0.000000   -2.104230
     14          6           0       -4.672340   -0.000000   -2.707251
     15          1           0       -5.104965    0.866025   -2.957922
     16          1           0       -5.104965   -0.866025   -2.957922
     17          1           0       -1.558318    2.265058   -0.899695
     18          9           0       -1.422973    3.151385   -0.821554
 ---------------------------------------------------------------------
                    Distance matrix (angstroms):
                    1          2          3          4          5
     1  C    0.000000
     2  C    1.300000   0.000000
     3  C    2.251666   1.300000   0.000000
     4  C    2.600000   2.251666   1.300000   0.000000
     5  C    2.251666   2.600000   2.251666   1.300000   0.000000
     6  C    1.300000   2.251666   2.600000   2.251666   1.300000
     7  F    1.400000   2.338803   3.534119   4.000000   3.534119
     8  H    1.997498   1.000000   1.997498   3.157531   3.600000
     9  H    3.157531   1.997498   1.000000   1.997498   3.157531
    10  H    3.600000   3.157531   1.997498   1.000000   1.997498
    11  H    3.157531   3.600000   3.157531   1.997498   1.000000
    12  H    1.997498   3.157531   3.600000   3.157531   1.997498
    13  O    4.199999   4.980059   6.253077   6.799997   6.251317
    14  C    5.399997   6.155390   7.436988   7.999995   7.434452
    15  H    5.963218   6.703772   7.978755   8.543999   7.976172
    16  H    5.963218   6.703772   7.978755   8.543999   7.976172
    17  H    2.892800   3.521009   4.522822   4.948245   4.522822
    18  F    3.554016   4.056731   4.910107   5.285375   4.910107
                    6          7          8          9         10
     6  C    0.000000
     7  F    2.338803   0.000000
     8  H    3.157531   2.523886   0.000000
     9  H    3.600000   4.334743   2.300000   0.000000
    10  H    3.157531   5.000000   3.983717   2.300000   0.000000
    11  H    1.997498   4.334743   4.600000   3.983717   2.300000
    12  H    1.000000   2.523886   3.983717   4.600000   3.983717
    13  O    4.977849   2.800000   4.786382   6.943301   7.799997
    14  C    6.152324   3.999999   5.899436   8.100821   8.999995
    15  H    6.700697   4.582575   6.430896   8.629970   9.539387
    16  H    6.700697   4.582575   6.430896   8.629970   9.539387
    17  H    3.521009   2.300000   3.591394   5.211076   5.855246
    18  F    4.056731   3.160748   4.136902   5.536448   6.117303
                   11         12         13         14         15
    11  H    0.000000
    12  H    2.300000   0.000000
    13  O    6.940497   4.782313   0.000000
    14  C    8.096700   5.893776   1.200000   0.000000
    15  H    8.625744   6.425224   1.907878   1.000000   0.000000
    16  H    8.625744   6.425224   1.907878   1.000000   1.732051
    17  H    5.211076   3.591394   3.300517   4.253807   4.332700
    18  F    5.536448   4.136902   4.058193   4.903618   4.831563
                   16         17         18
    16  H    0.000000
    17  H    5.159329   0.000000
    18  F    5.853266   0.900000   0.000000
 Stoichiometry    C7H8F2O
 Framework group  C1[X(C7H8F2O)]
 Deg. of freedom    48
 Full point group                 C1      NOp   1
 Largest Abelian subgroup         C1      NOp   1
 Largest concise Abelian subgroup C1      NOp   1
                         Standard orientation:                         
 ---------------------------------------------------------------------
 Center     Atomic      Atomic             Coordinates (Angstroms)
 Number     Number       Type             X           Y           Z
 ---------------------------------------------------------------------
      1          6           0       -0.702485   -0.355097   -0.001481
      2          6           0       -1.352040   -0.307568   -1.126567
      3          6           0       -2.648906   -0.217355   -1.125080
      4          6           0       -3.296216   -0.174671    0.001493
      5          6           0       -2.646661   -0.222201    1.126579
      6          6           0       -1.349796   -0.312414    1.125093
      7          9           0        0.694139   -0.452250   -0.003082
      8          1           0       -0.854109   -0.340401   -1.993162
      9          1           0       -3.148563   -0.180794   -1.990531
     10          1           0       -4.293805   -0.105277    0.002637
     11          1           0       -3.144592   -0.189367    1.993174
     12          1           0       -0.850138   -0.348975    1.990544
     13          8           0        3.487387   -0.646565   -0.001398
     14          6           0        4.684492   -0.729845    0.000721
     15          1           0        5.243386    0.099392    0.002724
     16          1           0        5.123187   -1.628480   -0.000875
     17          1           0        1.249754    1.779627    0.001168
     18          9           0        1.155356    2.674661    0.003188
 ---------------------------------------------------------------------
 Rotational constants (GHZ):           2.0958449           0.4987400           0.4591112
 Standard basis: 6-311++G(d,p) (5D, 7F)
 There are   286 symmetry adapted cartesian basis functions of A   symmetry.
 There are   276 symmetry adapted basis functions of A   symmetry.
   276 basis functions,   432 primitive gaussians,   286 cartesian basis functions
    38 alpha electrons       38 beta electrons
       nuclear repulsion energy       485.5299357125 Hartrees.
 NAtoms=   18 NActive=   18 NUniq=   18 SFac= 1.00D+00 NAtFMM=   60 NAOKFM=F Big=F
 Integral buffers will be    131072 words long.
 Raffenetti 2 integral format.
 Two-electron integral symmetry is turned on.
 ------------------------------------------------------------------------------
 Polarizable Continuum Model (PCM)
 =================================
 Model                : PCM.
 Atomic radii         : UFF (Universal Force Field).
 Polarization charges : Total charges.
 Charge compensation  : None.
 Solution method      : On-the-fly selection.
 Cavity type          : Scaled VdW (van der Waals Surface) (Alpha=1.100).
 Cavity algorithm     : GePol (No added spheres)
                        Default sphere list used, NSphG=   18.
                        Lebedev-Laikov grids with approx.  5.0 points / Ang**2.
                        Smoothing algorithm: York/Karplus (Gamma=1.0000).
                        Polarization charges: spherical gaussians, with
                                              point-specific exponents (IZeta= 3).
                        Self-potential: point-specific (ISelfS= 7).
                        Self-field    : sphere-specific E.n sum rule (ISelfD= 2).
 1st derivatives      : Analytical E(r).r(x)/FMM algorithm (CHGder, D1EAlg=3).
                        Cavity 1st derivative terms included.
 Solvent              : Water, Eps=  78.355300 Eps(inf)=   1.777849
 ------------------------------------------------------------------------------
 Spheres list:
 ISph  on   Nord     Re0    Alpha      Xe            Ye            Ze
    1   C      1    1.9255  1.100     -0.702485     -0.355097     -0.001481
    2   C      2    1.9255  1.100     -1.352040     -0.307568     -1.126567
    3   C      3    1.9255  1.100     -2.648906     -0.217355     -1.125080
    4   C      4    1.9255  1.100     -3.296216     -0.174671      0.001493
    5   C      5    1.9255  1.100     -2.646661     -0.222201      1.126579
    6   C      6    1.9255  1.100     -1.349796     -0.312414      1.125093
    7   F      7    1.6820  1.100      0.694139     -0.452250     -0.003082
    8   H      8    1.4430  1.100     -0.854109     -0.340401     -1.993162
    9   H      9    1.4430  1.100     -3.148563     -0.180794     -1.990531
   10   H     10    1.4430  1.100     -4.293805     -0.105277      0.002637
   11   H     11    1.4430  1.100     -3.144592     -0.189367      1.993174
   12   H     12    1.4430  1.100     -0.850138     -0.348975      1.990544
   13   O     13    1.7500  1.100      3.487387     -0.646565     -0.001398
   14   C     14    1.9255  1.100      4.684492     -0.729845      0.000721
   15   H     15    1.4430  1.100      5.243386      0.099392      0.002724
   16   H     16    1.4430  1.100      5.123187     -1.628480     -0.000875
   17   H     17    1.4430  1.100      1.249754      1.779627      0.001168
   18   F     18    1.6820  1.100      1.155356      2.674661      0.003188
 ------------------------------------------------------------------------------
 One-electron integrals computed using PRISM.
 NBasis=   276 RedAO= T EigKep=  4.19D-06  NBF=   276
 NBsUse=   275 1.00D-06 EigRej=  6.02D-07 NBFU=   275
 ExpMin= 3.60D-02 ExpMax= 1.14D+04 ExpMxC= 1.72D+03 IAcc=3 IRadAn=         5 AccDes= 0.00D+00
 Harris functional with IExCor= 1009 and IRadAn=       5 diagonalized for initial guess.
 HarFok:  IExCor= 1009 AccDes= 0.00D+00 IRadAn=         5 IDoV= 1 UseB2=F ITyADJ=14
 ICtDFT=  3500011 ScaDFX=  1.000000  1.000000  1.000000  1.000000
 FoFCou: FMM=F IPFlag=           0 FMFlag=      100000 FMFlg1=           0
         NFxFlg=           0 DoJE=T BraDBF=F KetDBF=T FulRan=T
         wScrn=  0.000000 ICntrl=       500 IOpCl=  0 I1Cent=   200000004 NGrid=           0
         NMat0=    1 NMatS0=      1 NMatT0=    0 NMatD0=    1 NMtDS0=    0 NMtDT0=    0
 Petite list used in FoFCou.
 Requested convergence on RMS density matrix=1.00D-08 within 128 cycles.
 Requested convergence on MAX density matrix=1.00D-06.
 Requested convergence on             energy=1.00D-06.
 No special actions if energy rises.
 Inv3:  Mode=1 IEnd=    10090668.
 Iteration    1 A*A^-1 deviation from unit magnitude is 5.55D-15 for   1817.
 Iteration    1 A*A^-1 deviation from orthogonality  is 2.50D-15 for   1832   1759.
 Iteration    1 A^-1*A deviation from unit magnitude is 5.55D-15 for   1817.
 Iteration    1 A^-1*A deviation from orthogonality  is 3.60D-15 for   1833   1370.
 Error on total polarization charges =  0.01095
 SCF Done:  E(RM062X) =  -546.291673605     A.U. after   13 cycles
            NFock= 13  Conv=0.71D-08     -V/T= 1.9985

 **********************************************************************

            Population analysis using the SCF Density.

 **********************************************************************

 Orbital symmetries:
       Occupied  (A) (A) (A) (A) (A) (A) (A) (A) (A) (A) (A) (A)
                 (A) (A) (A) (A) (A) (A) (A) (A) (A) (A) (A) (A)
                 (A) (A) (A) (A) (A) (A) (A) (A) (A) (A) (A) (A)
                 (A) (A)
       Virtual   (A) (A) (A) (A) (A) (A) (A) (A) (A) (A) (A) (A)
                 (A) (A) (A) (A) (A) (A) (A) (A) (A) (A) (A) (A)
                 (A) (A) (A) (A) (A) (A) (A) (A) (A) (A) (A) (A)
                 (A) (A) (A) (A) (A) (A) (A) (A) (A) (A) (A) (A)
                 (A) (A) (A) (A) (A) (A) (A) (A) (A) (A) (A) (A)
                 (A) (A) (A) (A) (A) (A) (A) (A) (A) (A) (A) (A)
                 (A) (A) (A) (A) (A) (A) (A) (A) (A) (A) (A) (A)
                 (A) (A) (A) (A) (A) (A) (A) (A) (A) (A) (A) (A)
                 (A) (A) (A) (A) (A) (A) (A) (A) (A) (A) (A) (A)
                 (A) (A) (A) (A) (A) (A) (A) (A) (A) (A) (A) (A)
                 (A) (A) (A) (A) (A) (A) (A) (A) (A) (A) (A) (A)
                 (A) (A) (A) (A) (A) (A) (A) (A) (A) (A) (A) (A)
                 (A) (A) (A) (A) (A) (A) (A) (A) (A) (A) (A) (A)
                 (A) (A) (A) (A) (A) (A) (A) (A) (A) (A) (A) (A)
                 (A) (A) (A) (A) (A) (A) (A) (A) (A) (A) (A) (A)
                 (A) (A) (A) (A) (A) (A) (A) (A) (A) (A) (A) (A)
                 (A) (A) (A) (A) (A) (A) (A) (A) (A) (A) (A) (A)
                 (A) (A) (A) (A) (A) (A) (A) (A) (A) (A) (A) (A)
                 (A) (A) (A) (A) (A) (A) (A) (A) (A) (A) (A) (A)
                 (A) (A) (A) (A) (A) (A) (A) (A) (A)
 The electronic state is 1-A.
 Alpha  occ. eigenvalues --  -25.25409 -25.23449 -19.63919 -10.61579 -10.61338
 Alpha  occ. eigenvalues --  -10.52419 -10.52416 -10.52150 -10.52138 -10.51413
 Alpha  occ. eigenvalues --   -1.35935  -1.35249  -1.19135  -1.03176  -0.89340
 Alpha  occ. eigenvalues --   -0.88449  -0.74925  -0.73788  -0.72355  -0.66428
 Alpha  occ. eigenvalues --   -0.65121  -0.60463  -0.59103  -0.58750  -0.56862
 Alpha  occ. eigenvalues --   -0.53973  -0.53510  -0.52531  -0.52037  -0.52029
 Alpha  occ. eigenvalues --   -0.50073  -0.47828  -0.47542  -0.44451  -0.42047
 Alpha  occ. eigenvalues --   -0.35075  -0.33908  -0.32890
 Alpha virt. eigenvalues --   -0.00454  -0.00252   0.00932   0.01547   0.02073
 Alpha virt. eigenvalues --    0.02511   0.02568   0.03446   0.03636   0.04248
 Alpha virt. eigenvalues --    0.05030   0.06589   0.07363   0.07812   0.07964
 Alpha virt. eigenvalues --    0.09050   0.10981   0.11122   0.11813   0.11890
 Alpha virt. eigenvalues --    0.13001   0.13299   0.13627   0.14130   0.14268
 Alpha virt. eigenvalues --    0.14380   0.14820   0.15297   0.15695   0.16345
 Alpha virt. eigenvalues --    0.17399   0.17811   0.18640   0.20145   0.20328
 Alpha virt. eigenvalues --    0.21076   0.21889   0.21955   0.22579   0.23150
 Alpha virt. eigenvalues --    0.25449   0.26282   0.26694   0.28836   0.29400
 Alpha virt. eigenvalues --    0.29686   0.31416   0.32471   0.33230   0.33507
 Alpha virt. eigenvalues --    0.34723   0.35458   0.35807   0.36819   0.36836
 Alpha virt. eigenvalues --    0.39192   0.40859   0.42011   0.42513   0.43656
 Alpha virt. eigenvalues --    0.44004   0.45365   0.45440   0.50946   0.51625
 Alpha virt. eigenvalues --    0.54306   0.54635   0.56720   0.57107   0.58120
 Alpha virt. eigenvalues --    0.58667   0.59291   0.60863   0.61502   0.62548
 Alpha virt. eigenvalues --    0.64172   0.65121   0.65529   0.65549   0.67405
 Alpha virt. eigenvalues --    0.69496   0.70464   0.74383   0.74788   0.75927
 Alpha virt. eigenvalues --    0.76227   0.81563   0.81639   0.82464   0.85314
 Alpha virt. eigenvalues --    0.85547   0.89256   0.90041   0.93831   0.96575
 Alpha virt. eigenvalues --    0.99874   1.01028   1.01946   1.02150   1.04511
 Alpha virt. eigenvalues --    1.05847   1.07901   1.08338   1.10402   1.11560
 Alpha virt. eigenvalues --    1.16113   1.16267   1.19031   1.21665   1.23938
 Alpha virt. eigenvalues --    1.24947   1.27014   1.32269   1.32886   1.35276
 Alpha virt. eigenvalues --    1.35559   1.36821   1.42991   1.46637   1.49844
 Alpha virt. eigenvalues --    1.52076   1.52338   1.52802   1.53437   1.59210
 Alpha virt. eigenvalues --    1.62422   1.62858   1.63671   1.64834   1.67540
 Alpha virt. eigenvalues --    1.68234   1.69954   1.72164   1.72973   1.76581
 Alpha virt. eigenvalues --    1.76724   1.80482   1.81968   1.84672   1.85722
 Alpha virt. eigenvalues --    1.85771   1.90349   1.92428   1.94273   1.97414
 Alpha virt. eigenvalues --    1.98844   2.04347   2.04396   2.05653   2.05726
 Alpha virt. eigenvalues --    2.06356   2.11950   2.15273   2.17197   2.17406
 Alpha virt. eigenvalues --    2.18748   2.20075   2.21857   2.29043   2.36308
 Alpha virt. eigenvalues --    2.40805   2.46417   2.48062   2.50561   2.50986
 Alpha virt. eigenvalues --    2.53705   2.57894   2.63698   2.67107   2.70922
 Alpha virt. eigenvalues --    2.71818   2.75348   2.76745   2.76820   2.77849
 Alpha virt. eigenvalues --    2.79337   2.81208   2.86497   2.86614   2.87451
 Alpha virt. eigenvalues --    2.88266   2.90395   2.96351   2.98132   2.98398
 Alpha virt. eigenvalues --    3.03551   3.07786   3.11925   3.24178   3.27268
 Alpha virt. eigenvalues --    3.34291   3.39653   3.41920   3.55287   3.59674
 Alpha virt. eigenvalues --    3.61633   3.64399   3.75180   3.75596   3.86624
 Alpha virt. eigenvalues --    3.88353   3.88493   3.88505   3.98337   4.00566
 Alpha virt. eigenvalues --    4.04598   4.08375   4.13939   4.14634   4.17050
 Alpha virt. eigenvalues --    4.17907   4.19354   4.26139   4.26475   4.36465
 Alpha virt. eigenvalues --    4.91470   4.95040   4.95620   5.11204   5.23535
 Alpha virt. eigenvalues --    5.81007   6.40930   6.44175   6.50276   6.60845
 Alpha virt. eigenvalues --    6.84304   6.88248  23.72879  24.17300  24.26849
 Alpha virt. eigenvalues --   24.31679  24.54317  24.57443  24.72874  50.06649
 Alpha virt. eigenvalues --   66.90726  66.96204
          Condensed to atoms (all electrons):
               1          2          3          4          5          6
     1  C   11.230072  -0.924570  -1.482401  -0.309363  -1.481066  -0.919909
     2  C   -0.924570  12.657068   1.035368  -0.668582  -0.127970  -6.240129
     3  C   -1.482401   1.035368   6.177735   0.577073  -0.327531  -0.131816
     4  C   -0.309363  -0.668582   0.577073   6.381392   0.576753  -0.662937
     5  C   -1.481066  -0.127970  -0.327531   0.576753   6.177452   1.031036
     6  C   -0.919909  -6.240129  -0.131816  -0.662937   1.031036  12.654433
     7  F    0.488516  -0.261041  -0.041980   0.031211  -0.042153  -0.261367
     8  H   -0.175622   0.649055  -0.029736  -0.003291   0.019194  -0.118397
     9  H    0.015404  -0.080912   0.441363  -0.095603  -0.012437   0.074362
    10  H    0.030767  -0.020574  -0.063097   0.493879  -0.063162  -0.020400
    11  H    0.015433   0.074451  -0.012399  -0.095667   0.441458  -0.081104
    12  H   -0.175304  -0.117873   0.019131  -0.003285  -0.029939   0.648481
    13  O    0.031387  -0.009866   0.000058  -0.000906   0.000080  -0.009799
    14  C   -0.001441  -0.001173   0.000020   0.000345   0.000003  -0.001361
    15  H    0.001513  -0.000370  -0.000164  -0.000007  -0.000164  -0.000361
    16  H   -0.001262   0.000407   0.000126  -0.000008   0.000125   0.000399
    17  H   -0.019603   0.003831   0.006255   0.000412   0.006310   0.004084
    18  F    0.126854  -0.031919  -0.022908   0.004091  -0.022917  -0.032201
               7          8          9         10         11         12
     1  C    0.488516  -0.175622   0.015404   0.030767   0.015433  -0.175304
     2  C   -0.261041   0.649055  -0.080912  -0.020574   0.074451  -0.117873
     3  C   -0.041980  -0.029736   0.441363  -0.063097  -0.012399   0.019131
     4  C    0.031211  -0.003291  -0.095603   0.493879  -0.095667  -0.003285
     5  C   -0.042153   0.019194  -0.012437  -0.063162   0.441458  -0.029939
     6  C   -0.261367  -0.118397   0.074362  -0.020400  -0.081104   0.648481
     7  F    9.325910  -0.029419  -0.000813   0.001198  -0.000809  -0.029380
     8  H   -0.029419   0.488657  -0.012371   0.000415   0.002683  -0.000296
     9  H   -0.000813  -0.012371   0.470585  -0.011904   0.000163   0.002681
    10  H    0.001198   0.000415  -0.011904   0.476776  -0.011910   0.000419
    11  H   -0.000809   0.002683   0.000163  -0.011910   0.470597  -0.012382
    12  H   -0.029380  -0.000296   0.002681   0.000419  -0.012382   0.488652
    13  O    0.007564   0.000646   0.000078  -0.000009   0.000079   0.000645
    14  C    0.004123  -0.000262  -0.000009   0.000005  -0.000009  -0.000260
    15  H   -0.001058  -0.000076   0.000000   0.000001   0.000000  -0.000076
    16  H   -0.000396   0.000045   0.000000  -0.000001  -0.000000   0.000045
    17  H    0.022755  -0.001189   0.000116  -0.000110   0.000116  -0.001189
    18  F   -0.012609   0.000908  -0.000657   0.000156  -0.000657   0.000910
              13         14         15         16         17         18
     1  C    0.031387  -0.001441   0.001513  -0.001262  -0.019603   0.126854
     2  C   -0.009866  -0.001173  -0.000370   0.000407   0.003831  -0.031919
     3  C    0.000058   0.000020  -0.000164   0.000126   0.006255  -0.022908
     4  C   -0.000906   0.000345  -0.000007  -0.000008   0.000412   0.004091
     5  C    0.000080   0.000003  -0.000164   0.000125   0.006310  -0.022917
     6  C   -0.009799  -0.001361  -0.000361   0.000399   0.004084  -0.032201
     7  F    0.007564   0.004123  -0.001058  -0.000396   0.022755  -0.012609
     8  H    0.000646  -0.000262  -0.000076   0.000045  -0.001189   0.000908
     9  H    0.000078  -0.000009   0.000000   0.000000   0.000116  -0.000657
    10  H   -0.000009   0.000005   0.000001  -0.000001  -0.000110   0.000156
    11  H    0.000079  -0.000009   0.000000  -0.000000   0.000116  -0.000657
    12  H    0.000645  -0.000260  -0.000076   0.000045  -0.001189   0.000910
    13  O    8.208419   0.287441  -0.090007  -0.087517   0.004044  -0.002079
    14  C    0.287441   4.789413   0.416460   0.417362   0.001506  -0.000537
    15  H   -0.090007   0.416460   0.662258  -0.119672  -0.000828   0.000406
    16  H   -0.087517   0.417362  -0.119672   0.663467   0.000223  -0.000133
    17  H    0.004044   0.001506  -0.000828   0.000223   0.371031   0.324264
    18  F   -0.002079  -0.000537   0.000406  -0.000133   0.324264   8.946041
 Mulliken charges:
               1
     1  C   -0.449406
     2  C    0.064799
     3  C   -0.145099
     4  C   -0.225506
     5  C   -0.145074
     6  C    0.066986
     7  F   -0.200250
     8  H    0.209057
     9  H    0.209954
    10  H    0.187550
    11  H    0.209956
    12  H    0.209020
    13  O   -0.340258
    14  C    0.088374
    15  H    0.132145
    16  H    0.126791
    17  H    0.277972
    18  F   -0.277012
 Sum of Mulliken charges =  -0.00000
 Mulliken charges with hydrogens summed into heavy atoms:
               1
     1  C   -0.449406
     2  C    0.273856
     3  C    0.064856
     4  C   -0.037955
     5  C    0.064882
     6  C    0.276006
     7  F   -0.200250
    13  O   -0.340258
    14  C    0.347310
    18  F    0.000960
 Electronic spatial extent (au):  <R**2>=           2400.1404
 Charge=              0.0000 electrons
 Dipole moment (field-independent basis, Debye):
    X=              0.6128    Y=             -2.2706    Z=              0.0030  Tot=              2.3518
 Quadrupole moment (field-independent basis, Debye-Ang):
   XX=            -24.4227   YY=            -67.6716   ZZ=            -50.7953
   XY=             -4.6618   XZ=              0.0168   YZ=             -0.0357
 Traceless Quadrupole moment (field-independent basis, Debye-Ang):
   XX=             23.2071   YY=            -20.0417   ZZ=             -3.1654
   XY=             -4.6618   XZ=              0.0168   YZ=             -0.0357
 Octapole moment (field-independent basis, Debye-Ang**2):
  XXX=            158.8326  YYY=            -14.6902  ZZZ=             -0.0046  XYY=             12.4881
  XXY=            -18.2646  XXZ=              0.0630  XZZ=              0.8660  YZZ=              2.3273
  YYZ=             -0.0268  XYZ=              0.0095
 Hexadecapole moment (field-independent basis, Debye-Ang**3):
 XXXX=          -1382.0040 YYYY=           -434.8501 ZZZZ=           -239.5988 XXXY=           -118.5265
 XXXZ=              0.2417 YYYX=            -38.4117 YYYZ=             -0.0208 ZZZX=              0.0003
 ZZZY=             -0.0439 XXYY=           -457.2942 XXZZ=           -412.6030 YYZZ=           -109.1260
 XXYZ=             -0.1208 YYXZ=             -0.0496 ZZXY=              3.2088
 N-N= 4.855299357125D+02 E-N=-2.258221490101D+03  KE= 5.471315531260D+02
 D1PCM: PCM CHGder 1st derivatives, ID1Alg=3 FixD1E=F DoIter=F DoCFld=F I1PDM=0.
 Calling FoFJK, ICntrl=      2127 FMM=F ISym2X=0 I1Cent= 0 IOpClX= 0 NMat=1 NMatS=1 NMatT=0.
 ***** Axes restored to original set *****
 -------------------------------------------------------------------
 Center     Atomic                   Forces (Hartrees/Bohr)
 Number     Number              X              Y              Z
 -------------------------------------------------------------------
      1        6          -0.087174943   -0.000505172   -0.050331546
      2        6          -0.053824928   -0.000245558    0.014901180
      3        6           0.002630239    0.000291209    0.037537461
      4        6           0.039429082   -0.000205515    0.022767742
      5        6           0.033827619    0.000292093   -0.016489300
      6        6          -0.014007326   -0.000244442   -0.054062747
      7        9           0.022664086    0.003581326    0.013085538
      8        1          -0.065543149   -0.000065880    0.036035908
      9        1          -0.001695021    0.000003258    0.073799728
     10        1           0.064285310   -0.000006060    0.037114921
     11        1           0.063063672    0.000002663   -0.038368827
     12        1          -0.001564762   -0.000066736   -0.074780567
     13        8           0.016752565    0.000457411    0.009672667
     14        6           0.059887664    0.000128039    0.034902827
     15        1          -0.039105623    0.071311737   -0.022741800
     16        1          -0.039059327   -0.071330631   -0.022715504
     17        1          -0.005195441   -0.031973154   -0.003002253
     18        9           0.004630284    0.028575412    0.002674573
 -------------------------------------------------------------------
 Cartesian Forces:  Max     0.087174943 RMS     0.036238961
 -----------------------------------------------------------------------------------------------
                       Internal Coordinate Forces (Hartree/Bohr or radian)
  Cent   Atom   N1       Length/X         N2         Alpha/Y        N3         Beta/Z          J
 -----------------------------------------------------------------------------------------------
      1  C 
      2  C        1   0.037413(     1)
      3  C        2   0.153771(     2)      1   0.162147(    18)
      4  C        3   0.222153(     3)      2   0.415655(    19)      1  -0.000409(    34)     0
      5  C        4   0.184744(     4)      3   0.451555(    20)      2  -0.000684(    35)     0
      6  C        5   0.078950(     5)      4   0.253261(    21)      3  -0.000648(    36)     0
      7  F        1  -0.023756(     6)      2  -0.000001(    22)      3   0.000236(    37)     0
      8  H        2   0.074780(     7)      3   0.002955(    23)      4  -0.000108(    38)     0
      9  H        3   0.073800(     8)      4   0.003203(    24)      5   0.000005(    39)     0
     10  H        4   0.074230(     9)      5  -0.000000(    25)      6  -0.000010(    40)     0
     11  H        5   0.073799(    10)      6  -0.003206(    26)      1   0.000004(    41)     0
     12  H        6   0.074781(    11)      1  -0.002957(    27)      2  -0.000109(    42)     0
     13  O        7   0.001761(    12)      1   0.000008(    28)      3  -0.000005(    43)     0
     14  C       13   0.021106(    13)      1   0.000105(    29)      2  -0.000000(    44)     0
     15  H       14   0.084377(    14)      1   0.006654(    30)      2   0.000118(    45)     0
     16  H       14   0.084366(    15)      1   0.006549(    31)      2  -0.000119(    46)     0
     17  H        7  -0.003233(    16)      1   0.004844(    32)      2   0.000003(    47)     0
     18  F       17   0.029070(    17)      7  -0.000517(    33)      1  -0.000001(    48)     0
 -----------------------------------------------------------------------------------------------
 Internal  Forces:  Max     0.451554651 RMS     0.114173370

 GradGradGradGradGradGradGradGradGradGradGradGradGradGradGradGradGradGrad
 Berny optimization.
 Search for a local minimum.
 Step number   1 out of a maximum of   27
 All quantities printed in internal units (Hartrees-Bohrs-Radians)
 Second derivative matrix not updated -- first step.
 The second derivative matrix:
                          d1        d2        d3        d4        d5
           d1           0.95300
           d2          -0.05489   0.95300
           d3          -0.33597   0.33597   1.34386
           d4          -0.28107   0.05489   0.33597   0.95300
           d5           0.05489  -0.28107  -0.33597  -0.05489   0.95300
           d6           0.00000   0.00000  -0.00000  -0.00000  -0.00000
           d7          -0.00000  -0.00000  -0.00000   0.00000   0.00000
           d8           0.00000   0.00000   0.00000  -0.00000  -0.00000
           d9          -0.00000  -0.00000  -0.00000   0.00000   0.00000
           d10          0.00000  -0.00000  -0.00000   0.00000  -0.00000
           d11         -0.00000  -0.00000   0.00000  -0.00000   0.00000
           d12          0.00000   0.00000  -0.00000  -0.00000  -0.00000
           d13          0.00000   0.00000  -0.00000  -0.00000  -0.00000
           d14          0.00000   0.00000  -0.00000  -0.00000  -0.00000
           d15         -0.00000  -0.00000  -0.00000   0.00000   0.00000
           d16         -0.00000  -0.00000   0.00000   0.00000   0.00000
           d17         -0.00000  -0.00000   0.00000   0.00000   0.00000
                          d6        d7        d8        d9        d10
           d6           0.45621
           d7          -0.00000   0.47688
           d8          -0.00000   0.00000   0.47688
           d9           0.00000  -0.00000   0.00000   0.47688
           d10          0.00000  -0.00000   0.00000  -0.00000   0.47688
           d11          0.00000   0.00000  -0.00000   0.00000  -0.00000
           d12         -0.00000   0.00000  -0.00000   0.00000   0.00000
           d13         -0.00000   0.00000  -0.00000   0.00000   0.00000
           d14          0.00000  -0.00000  -0.00000   0.00000   0.00000
           d15          0.00000   0.00000   0.00000  -0.00000  -0.00000
           d16         -0.00000  -0.00000   0.00000  -0.00000  -0.00000
           d17          0.00000  -0.00000   0.00000  -0.00000  -0.00000
                          d11       d12       d13       d14       d15
           d11          0.47688
           d12          0.00000   0.02330
           d13          0.00000  -0.00000   1.04823
           d14          0.00000   0.00000   0.00000   0.47688
           d15         -0.00000   0.00000  -0.00000   0.00000   0.47688
           d16         -0.00000   0.00000  -0.00000   0.00000  -0.00000
           d17         -0.00000   0.00000   0.00000   0.00000  -0.00000
                          d16       d17
           d16          0.02721
           d17          0.00000   0.70673
 ITU=  0
     Eigenvalues ---    0.02330   0.02721   0.45621   0.47688   0.47688
     Eigenvalues ---    0.47688   0.47688   0.47688   0.47688   0.47688
     Eigenvalues ---    0.67193   0.67193   0.67193   0.70673   1.04823
     Eigenvalues ---    1.12429   2.01579
 RFO step:  Lambda=-1.63470687D-01 EMin= 2.33007068D-02
 Linear search not attempted -- first point.
 Maximum step size (   0.300) exceeded in Quadratic search.
    -- Step size scaled by   0.670
 Variable       Old X    -DE/DX   Delta X   Delta X   Delta X     New X
                                 (Linear)    (Quad)   (Total)
    d1        2.45664   0.03741   0.00000   0.07627   0.07627   2.53291
    d2        2.45664   0.15377   0.00000   0.08718   0.08718   2.54382
    d3        2.45664   0.22215   0.00000   0.09571   0.09571   2.55235
    d4        2.45664   0.18474   0.00000   0.10179   0.10179   2.55844
    d5        2.45664   0.07895   0.00000   0.09935   0.09935   2.55599
    d6        2.64562  -0.02376   0.00000  -0.02567  -0.02567   2.61995
    d7        1.88973   0.07478   0.00000   0.07819   0.07819   1.96792
    d8        1.88973   0.07380   0.00000   0.07717   0.07717   1.96689
    d9        1.88973   0.07423   0.00000   0.07762   0.07762   1.96734
   d10        1.88973   0.07380   0.00000   0.07717   0.07717   1.96689
   d11        1.88973   0.07478   0.00000   0.07819   0.07819   1.96792
   d12        5.29123   0.00176   0.00000   0.00631   0.00631   5.29755
   d13        2.26767   0.02111   0.00000   0.01166   0.01166   2.27933
   d14        1.88973   0.08438   0.00000   0.08823   0.08823   1.97795
   d15        1.88973   0.08437   0.00000   0.08822   0.08822   1.97794
   d16        4.34637  -0.00323   0.00000  -0.01135  -0.01135   4.33502
   d17        1.70075   0.02907   0.00000   0.02237   0.02237   1.72312
         Item               Value     Threshold  Converged?
 Maximum Force            0.222153     0.000450     NO 
 RMS     Force            0.096544     0.000300     NO 
 Maximum Displacement     0.101794     0.001800     NO 
 RMS     Displacement     0.072761     0.001200     NO 
 Predicted change in Energy=-8.016756D-02
 GradGradGradGradGradGradGradGradGradGradGradGradGradGradGradGradGradGrad

 ---------------------------------------------------------------------------------------------------
                            Z-MATRIX (ANGSTROMS AND DEGREES)
   CD    Cent   Atom    N1       Length/X        N2       Alpha/Y        N3        Beta/Z          J
 ---------------------------------------------------------------------------------------------------
      1      1  C 
      2      2  C        1   1.340358(     1)
      3      3  C        2   1.346132(     2)      1  120.000(    18)
      4      4  C        3   1.350646(     3)      2  120.000(    19)      1    0.000(    34)      0
      5      5  C        4   1.353867(     4)      3  120.000(    20)      2    0.000(    35)      0
      6      6  C        5   1.352573(     5)      4  120.000(    21)      3    0.000(    36)      0
      7      7  F        1   1.386417(     6)      2  120.000(    22)      3  180.000(    37)      0
      8      8  H        2   1.041378(     7)      3  120.000(    23)      4  180.000(    38)      0
      9      9  H        3   1.040835(     8)      4  120.000(    24)      5  180.000(    39)      0
     10     10  H        4   1.041073(     9)      5  120.000(    25)      6  180.000(    40)      0
     11     11  H        5   1.040835(    10)      6  120.000(    26)      1  180.000(    41)      0
     12     12  H        6   1.041378(    11)      1  120.000(    27)      2  180.000(    42)      0
     13     13  O        7   2.803341(    12)      1  179.900(    28)      3  180.000(    43)      0
     14     14  C       13   1.206172(    13)      1  179.900(    29)      2  180.000(    44)      0
     15     15  H       14   1.046688(    14)      1  120.000(    30)      2   90.000(    45)      0
     16     16  H       14   1.046682(    15)      1  120.000(    31)      2  -90.000(    46)      0
     17     17  H        7   2.293993(    16)      1  100.000(    32)      2   90.000(    47)      0
     18     18  F       17   0.911837(    17)      7  160.000(    33)      1    0.000(    48)      0
 ---------------------------------------------------------------------------------------------------
                         Z-Matrix orientation:                         
 ---------------------------------------------------------------------
 Center     Atomic      Atomic             Coordinates (Angstroms)
 Number     Number       Type             X           Y           Z
 ---------------------------------------------------------------------
      1          6           0        0.000000    0.000000    0.000000
      2          6           0        0.000000    0.000000    1.340358
      3          6           0        1.165784    0.000000    2.013423
      4          6           0        2.335477    0.000000    1.338101
      5          6           0        2.335477    0.000000   -0.015766
      6          6           0        1.164115    0.000000   -0.692053
      7          9           0       -1.200672   -0.000000   -0.693208
      8          1           0       -0.901859   -0.000000    1.861046
      9          1           0        1.165784   -0.000000    3.054259
     10          1           0        3.237073   -0.000000    1.858637
     11          1           0        3.236867   -0.000000   -0.536184
     12          1           0        1.150829   -0.000000   -1.733346
     13          8           0       -3.625987   -0.000000   -2.099114
     14          6           0       -4.668801   -0.000000   -2.705240
     15          1           0       -5.121622    0.906458   -2.967618
     16          1           0       -5.121619   -0.906453   -2.967617
     17          1           0       -1.545651    2.259142   -0.892382
     18          9           0       -1.408526    3.157126   -0.813213
 ---------------------------------------------------------------------
                    Distance matrix (angstroms):
                    1          2          3          4          5
     1  C    0.000000
     2  C    1.340358   0.000000
     3  C    2.326570   1.346132   0.000000
     4  C    2.691648   2.335479   1.350646   0.000000
     5  C    2.335531   2.700653   2.342177   1.353867   0.000000
     6  C    1.354289   2.342190   2.705477   2.343846   1.352573
     7  F    1.386417   2.361568   3.595271   4.078060   3.600456
     8  H    2.068053   1.041378   2.073251   3.279302   3.742028
     9  H    3.269182   2.072802   1.040835   2.076868   3.285306
    10  H    3.732717   3.278301   2.077065   1.041073   2.079967
    11  H    3.280975   3.741486   3.284795   2.079770   1.040835
    12  H    2.080600   3.282082   3.746799   3.291987   2.086498
    13  O    4.189757   4.997774   6.314589   6.881388   6.315014
    14  C    5.395927   6.177748   7.503877   8.087554   7.502879
    15  H    5.988275   6.753616   8.072417   8.658476   8.071148
    16  H    5.988271   6.753613   8.072414   8.658473   8.071144
    17  H    2.879081   3.532405   4.571576   5.014174   4.575515
    18  F    3.551437   4.072991   4.958265   5.349126   4.961948
                    6          7          8          9         10
     6  C    0.000000
     7  F    2.364787   0.000000
     8  H    3.284291   2.571674   0.000000
     9  H    3.746312   4.432113   2.387238   0.000000
    10  H    3.286819   5.119131   4.138934   2.391600   0.000000
    11  H    2.078605   4.440316   4.782862   4.144956   2.394821
    12  H    1.041378   2.571272   4.139225   4.787628   4.153885
    13  O    4.992484   2.803341   4.806635   7.036926   7.922461
    14  C    6.170561   4.009513   5.919529   8.198427   9.128627
    15  H    6.746136   4.622602   6.476424   8.753065   9.694441
    16  H    6.746132   4.622599   6.476420   8.753061   9.694438
    17  H    3.533650   2.293993   3.619331   5.294486   5.962071
    18  F    4.074384   3.166236   4.168431   5.617103   6.219953
                   11         12         13         14         15
    11  H    0.000000
    12  H    2.405151   0.000000
    13  O    7.038573   4.790799   0.000000
    14  C    8.197828   5.900226   1.206172   0.000000
    15  H    8.752021   6.456681   1.952662   1.046688   0.000000
    16  H    8.752018   6.456677   1.952657   1.046682   1.812911
    17  H    5.301234   3.616897   3.299655   4.259606   4.350164
    18  F    5.623510   4.167059   4.066709   4.916971   4.847066
                   16         17         18
    16  H    0.000000
    17  H    5.207220   0.000000
    18  F    5.911108   0.911837   0.000000
 Stoichiometry    C7H8F2O
 Framework group  C1[X(C7H8F2O)]
 Deg. of freedom    48
 Full point group                 C1      NOp   1
 Largest Abelian subgroup         C1      NOp   1
 Largest concise Abelian subgroup C1      NOp   1
                         Standard orientation:                         
 ---------------------------------------------------------------------
 Center     Atomic      Atomic             Coordinates (Angstroms)
 Number     Number       Type             X           Y           Z
 ---------------------------------------------------------------------
      1          6           0       -0.673874   -0.357991   -0.008139
      2          6           0       -1.341944   -0.305702   -1.168961
      3          6           0       -2.684879   -0.212977   -1.169069
      4          6           0       -3.359118   -0.172632    0.000554
      5          6           0       -2.684314   -0.225448    1.173075
      6          6           0       -1.334953   -0.318617    1.173184
      7          9           0        0.709250   -0.453491   -0.008028
      8          1           0       -0.822091   -0.336808   -2.070766
      9          1           0       -3.203659   -0.172372   -2.070488
     10          1           0       -4.397718   -0.100920    0.000470
     11          1           0       -3.203896   -0.194358    2.074410
     12          1           0       -0.804463   -0.359997    2.068357
     13          8           0        3.505926   -0.646617   -0.002910
     14          6           0        4.709226   -0.729719    0.000701
     15          1           0        5.293764    0.138520    0.006359
     16          1           0        5.168886   -1.670060   -0.003242
     17          1           0        1.262263    1.772815    0.003968
     18          9           0        1.166154    2.679560    0.008710
 ---------------------------------------------------------------------
 Rotational constants (GHZ):           2.0369156           0.4876531           0.4519513
 Standard basis: 6-311++G(d,p) (5D, 7F)
 There are   286 symmetry adapted cartesian basis functions of A   symmetry.
 There are   276 symmetry adapted basis functions of A   symmetry.
   276 basis functions,   432 primitive gaussians,   286 cartesian basis functions
    38 alpha electrons       38 beta electrons
       nuclear repulsion energy       475.8026730308 Hartrees.
 NAtoms=   18 NActive=   18 NUniq=   18 SFac= 1.00D+00 NAtFMM=   60 NAOKFM=F Big=F
 Integral buffers will be    131072 words long.
 Raffenetti 2 integral format.
 Two-electron integral symmetry is turned on.
 ------------------------------------------------------------------------------
 Polarizable Continuum Model (PCM)
 =================================
 Model                : PCM.
 Atomic radii         : UFF (Universal Force Field).
 Polarization charges : Total charges.
 Charge compensation  : None.
 Solution method      : On-the-fly selection.
 Cavity type          : Scaled VdW (van der Waals Surface) (Alpha=1.100).
 Cavity algorithm     : GePol (No added spheres)
                        Default sphere list used, NSphG=   18.
                        Lebedev-Laikov grids with approx.  5.0 points / Ang**2.
                        Smoothing algorithm: York/Karplus (Gamma=1.0000).
                        Polarization charges: spherical gaussians, with
                                              point-specific exponents (IZeta= 3).
                        Self-potential: point-specific (ISelfS= 7).
                        Self-field    : sphere-specific E.n sum rule (ISelfD= 2).
 1st derivatives      : Analytical E(r).r(x)/FMM algorithm (CHGder, D1EAlg=3).
                        Cavity 1st derivative terms included.
 Solvent              : Water, Eps=  78.355300 Eps(inf)=   1.777849
 ------------------------------------------------------------------------------
 Spheres list:
 ISph  on   Nord     Re0    Alpha      Xe            Ye            Ze
    1   C      1    1.9255  1.100     -0.673874     -0.357991     -0.008139
    2   C      2    1.9255  1.100     -1.341944     -0.305702     -1.168961
    3   C      3    1.9255  1.100     -2.684879     -0.212977     -1.169069
    4   C      4    1.9255  1.100     -3.359118     -0.172632      0.000554
    5   C      5    1.9255  1.100     -2.684314     -0.225448      1.173075
    6   C      6    1.9255  1.100     -1.334953     -0.318617      1.173184
    7   F      7    1.6820  1.100      0.709250     -0.453491     -0.008028
    8   H      8    1.4430  1.100     -0.822091     -0.336808     -2.070766
    9   H      9    1.4430  1.100     -3.203659     -0.172372     -2.070488
   10   H     10    1.4430  1.100     -4.397718     -0.100920      0.000470
   11   H     11    1.4430  1.100     -3.203896     -0.194358      2.074410
   12   H     12    1.4430  1.100     -0.804463     -0.359997      2.068357
   13   O     13    1.7500  1.100      3.505926     -0.646617     -0.002910
   14   C     14    1.9255  1.100      4.709226     -0.729719      0.000701
   15   H     15    1.4430  1.100      5.293764      0.138520      0.006359
   16   H     16    1.4430  1.100      5.168886     -1.670060     -0.003242
   17   H     17    1.4430  1.100      1.262263      1.772815      0.003968
   18   F     18    1.6820  1.100      1.166154      2.679560      0.008710
 ------------------------------------------------------------------------------
 One-electron integrals computed using PRISM.
 NBasis=   276 RedAO= T EigKep=  5.76D-06  NBF=   276
 NBsUse=   275 1.00D-06 EigRej=  8.36D-07 NBFU=   275
 Initial guess from the checkpoint file:  "model_H1.chk"
 B after Tr=    -0.000000    0.000000    0.000000
         Rot=    0.999999   -0.001265   -0.000067    0.000011 Ang=  -0.15 deg.
 ExpMin= 3.60D-02 ExpMax= 1.14D+04 ExpMxC= 1.72D+03 IAcc=3 IRadAn=         5 AccDes= 0.00D+00
 Harris functional with IExCor= 1009 and IRadAn=       5 diagonalized for initial guess.
 HarFok:  IExCor= 1009 AccDes= 0.00D+00 IRadAn=         5 IDoV= 1 UseB2=F ITyADJ=14
 ICtDFT=  3500011 ScaDFX=  1.000000  1.000000  1.000000  1.000000
 FoFCou: FMM=F IPFlag=           0 FMFlag=      100000 FMFlg1=           0
         NFxFlg=           0 DoJE=T BraDBF=F KetDBF=T FulRan=T
         wScrn=  0.000000 ICntrl=       500 IOpCl=  0 I1Cent=   200000004 NGrid=           0
         NMat0=    1 NMatS0=      1 NMatT0=    0 NMatD0=    1 NMtDS0=    0 NMtDT0=    0
 Petite list used in FoFCou.
 Requested convergence on RMS density matrix=1.00D-08 within 128 cycles.
 Requested convergence on MAX density matrix=1.00D-06.
 Requested convergence on             energy=1.00D-06.
 No special actions if energy rises.
 Inv3:  Mode=1 IEnd=    10212075.
 Iteration    1 A*A^-1 deviation from unit magnitude is 4.77D-15 for   1839.
 Iteration    1 A*A^-1 deviation from orthogonality  is 2.06D-15 for   1833   1756.
 Iteration    1 A^-1*A deviation from unit magnitude is 5.00D-15 for   1839.
 Iteration    1 A^-1*A deviation from orthogonality  is 2.43D-15 for   1844   1817.
 Error on total polarization charges =  0.01171
 SCF Done:  E(RM062X) =  -546.367888926     A.U. after   13 cycles
            NFock= 13  Conv=0.41D-08     -V/T= 2.0013
 D1PCM: PCM CHGder 1st derivatives, ID1Alg=3 FixD1E=F DoIter=F DoCFld=F I1PDM=0.
 Calling FoFJK, ICntrl=      2127 FMM=F ISym2X=0 I1Cent= 0 IOpClX= 0 NMat=1 NMatS=1 NMatT=0.
 ***** Axes restored to original set *****
 -------------------------------------------------------------------
 Center     Atomic                   Forces (Hartrees/Bohr)
 Number     Number              X              Y              Z
 -------------------------------------------------------------------
      1        6          -0.028423149   -0.000675619   -0.031270018
      2        6          -0.028774246   -0.000171347    0.009277473
      3        6           0.008018379    0.000249964    0.010121604
      4        6           0.012386701   -0.000166966    0.004864015
      5        6           0.005851699    0.000252858   -0.001380594
      6        6          -0.010238114   -0.000167071   -0.016221397
      7        9           0.018810181    0.003463090    0.011707478
      8        1          -0.030026189   -0.000070783    0.015410157
      9        1          -0.001319008    0.000010915    0.033243913
     10        1           0.028955263   -0.000002487    0.016538244
     11        1           0.028131026    0.000006529   -0.017816969
     12        1          -0.001401242   -0.000073173   -0.033328875
     13        8           0.002620969    0.000458244    0.001460501
     14        6           0.035947703    0.000159735    0.021042714
     15        1          -0.019998828    0.031875478   -0.011663519
     16        1          -0.019940487   -0.031923182   -0.011632424
     17        1          -0.002900657   -0.016475010   -0.001681864
     18        9           0.002300000    0.013248824    0.001329561
 -------------------------------------------------------------------
 Cartesian Forces:  Max     0.035947703 RMS     0.016579908
 -----------------------------------------------------------------------------------------------
                       Internal Coordinate Forces (Hartree/Bohr or radian)
  Cent   Atom   N1       Length/X         N2         Alpha/Y        N3         Beta/Z          J
 -----------------------------------------------------------------------------------------------
      1  C 
      2  C        1   0.020063(     1)
      3  C        2   0.058310(     2)      1   0.030296(    18)
      4  C        3   0.078816(     3)      2   0.126239(    19)      1  -0.000162(    34)     0
      5  C        4   0.069393(     4)      3   0.148939(    20)      2  -0.000478(    35)     0
      6  C        5   0.035510(     5)      4   0.093061(    21)      3  -0.000515(    36)     0
      7  F        1  -0.019864(     6)      2  -0.001911(    22)      3   0.000322(    37)     0
      8  H        2   0.033709(     7)      3   0.003282(    23)      4  -0.000121(    38)     0
      9  H        3   0.033244(     8)      4   0.002594(    24)      5   0.000019(    39)     0
     10  H        4   0.033345(     9)      5  -0.000305(    25)      6  -0.000004(    40)     0
     11  H        5   0.033271(    10)      6  -0.002684(    26)      1   0.000011(    41)     0
     12  H        6   0.033344(    11)      1  -0.001921(    27)      2  -0.000125(    42)     0
     13  O        7   0.001583(    12)      1   0.000008(    28)      3  -0.000005(    43)     0
     14  C       13   0.004583(    13)      1   0.000102(    29)      2  -0.000000(    44)     0
     15  H       14   0.039181(    14)      1   0.008133(    30)      2   0.000112(    45)     0
     16  H       14   0.039189(    15)      1   0.007973(    31)      2  -0.000116(    46)     0
     17  H        7  -0.003056(    16)      1   0.004857(    32)      2   0.000018(    47)     0
     18  F       17   0.013509(    17)      7  -0.000544(    33)      1  -0.000001(    48)     0
 -----------------------------------------------------------------------------------------------
 Internal  Forces:  Max     0.148939169 RMS     0.039058654

 GradGradGradGradGradGradGradGradGradGradGradGradGradGradGradGradGradGrad
 Berny optimization.
 Search for a local minimum.
 Step number   2 out of a maximum of   27
 All quantities printed in internal units (Hartrees-Bohrs-Radians)
 Update second derivatives using D2CorN and points    1    2
 DE= -7.62D-02 DEPred=-8.02D-02 R= 9.51D-01
 TightC=F SS=  1.41D+00  RLast= 3.00D-01 DXNew= 5.0454D-01 9.0000D-01
 Trust test= 9.51D-01 RLast= 3.00D-01 DXMaxT set to 5.05D-01
 The second derivative matrix:
                          d1        d2        d3        d4        d5
           d1           0.95704
           d2          -0.04973   0.95954
           d3          -0.32910   0.34451   1.35475
           d4          -0.27486   0.06273   0.34616   0.96238
           d5           0.06041  -0.27404  -0.32669  -0.04646   0.96053
           d6           0.00263   0.00282   0.00270   0.00324   0.00334
           d7           0.00367   0.00476   0.00646   0.00574   0.00505
           d8           0.00363   0.00471   0.00638   0.00568   0.00500
           d9           0.00370   0.00479   0.00647   0.00576   0.00508
           d10          0.00362   0.00470   0.00637   0.00566   0.00498
           d11          0.00383   0.00494   0.00665   0.00595   0.00525
           d12          0.00018   0.00025   0.00038   0.00031   0.00026
           d13          0.00213   0.00252   0.00295   0.00297   0.00281
           d14          0.00366   0.00482   0.00668   0.00583   0.00507
           d15          0.00365   0.00481   0.00667   0.00582   0.00506
           d16         -0.00024  -0.00036  -0.00057  -0.00045  -0.00036
           d17          0.00049   0.00072   0.00114   0.00089   0.00071
                          d6        d7        d8        d9        d10
           d6           0.45398
           d7           0.00286   0.48017
           d8           0.00282   0.00325   0.48010
           d9           0.00282   0.00331   0.00328   0.48022
           d10          0.00282   0.00324   0.00321   0.00327   0.48008
           d11          0.00280   0.00345   0.00341   0.00347   0.00340
           d12          0.00027   0.00015   0.00014   0.00015   0.00014
           d13         -0.00011   0.00211   0.00209   0.00210   0.00208
           d14          0.00339   0.00321   0.00318   0.00324   0.00317
           d15          0.00339   0.00320   0.00317   0.00324   0.00316
           d16         -0.00051  -0.00018  -0.00018  -0.00019  -0.00018
           d17          0.00101   0.00036   0.00036   0.00037   0.00036
                          d11       d12       d13       d14       d15
           d11          0.48049
           d12          0.00016   0.02330
           d13          0.00214   0.00015   1.04879
           d14          0.00339   0.00012   0.00231   0.47994
           d15          0.00338   0.00012   0.00231   0.00305   0.47993
           d16         -0.00020   0.00000  -0.00026  -0.00013  -0.00013
           d17          0.00041  -0.00000   0.00052   0.00027   0.00027
                          d16       d17
           d16          0.02719
           d17          0.00003   0.70667
 ITU=  1  0
     Eigenvalues ---    0.02330   0.02719   0.45261   0.47677   0.47688
     Eigenvalues ---    0.47688   0.47688   0.47688   0.47688   0.49706
     Eigenvalues ---    0.67187   0.67193   0.70504   0.70836   1.04893
     Eigenvalues ---    1.12471   2.02291
 RFO step:  Lambda=-4.09409070D-03 EMin= 2.33019444D-02
 Quartic linear search produced a step of  0.90929.
 Variable       Old X    -DE/DX   Delta X   Delta X   Delta X     New X
                                 (Linear)    (Quad)   (Total)
    d1        2.53291   0.02006   0.06935   0.00336   0.07271   2.60562
    d2        2.54382   0.05831   0.07927  -0.00867   0.07059   2.61441
    d3        2.55235   0.07882   0.08703  -0.02255   0.06448   2.61683
    d4        2.55844   0.06939   0.09256  -0.01308   0.07948   2.63792
    d5        2.55599   0.03551   0.09034  -0.00119   0.08915   2.64514
    d6        2.61995  -0.01986  -0.02334  -0.04420  -0.06754   2.55241
    d7        1.96792   0.03371   0.07110   0.01513   0.08623   2.05415
    d8        1.96689   0.03324   0.07017   0.01484   0.08500   2.05190
    d9        1.96734   0.03335   0.07058   0.01455   0.08512   2.05247
   d10        1.96689   0.03327   0.07017   0.01495   0.08511   2.05201
   d11        1.96792   0.03334   0.07110   0.01364   0.08474   2.05266
   d12        5.29755   0.00158   0.00574   0.08455   0.09029   5.38784
   d13        2.27933   0.00458   0.01060  -0.00855   0.00206   2.28139
   d14        1.97795   0.03918   0.08022   0.02173   0.10196   2.07991
   d15        1.97794   0.03919   0.08021   0.02178   0.10200   2.07994
   d16        4.33502  -0.00306  -0.01032  -0.14418  -0.15450   4.18052
   d17        1.72312   0.01351   0.02034   0.00358   0.02392   1.74704
         Item               Value     Threshold  Converged?
 Maximum Force            0.078816     0.000450     NO 
 RMS     Force            0.038611     0.000300     NO 
 Maximum Displacement     0.154499     0.001800     NO 
 RMS     Displacement     0.085055     0.001200     NO 
 Predicted change in Energy=-1.547520D-02
 GradGradGradGradGradGradGradGradGradGradGradGradGradGradGradGradGradGrad

 ---------------------------------------------------------------------------------------------------
                            Z-MATRIX (ANGSTROMS AND DEGREES)
   CD    Cent   Atom    N1       Length/X        N2       Alpha/Y        N3        Beta/Z          J
 ---------------------------------------------------------------------------------------------------
      1      1  C 
      2      2  C        1   1.378832(     1)
      3      3  C        2   1.383488(     2)      1  120.000(    18)
      4      4  C        3   1.384766(     3)      2  120.000(    19)      1    0.000(    34)      0
      5      5  C        4   1.395926(     4)      3  120.000(    20)      2    0.000(    35)      0
      6      6  C        5   1.399750(     5)      4  120.000(    21)      3    0.000(    36)      0
      7      7  F        1   1.350675(     6)      2  120.000(    22)      3  180.000(    37)      0
      8      8  H        2   1.087007(     7)      3  120.000(    23)      4  180.000(    38)      0
      9      9  H        3   1.085818(     8)      4  120.000(    24)      5  180.000(    39)      0
     10     10  H        4   1.086118(     9)      5  120.000(    25)      6  180.000(    40)      0
     11     11  H        5   1.085875(    10)      6  120.000(    26)      1  180.000(    41)      0
     12     12  H        6   1.086222(    11)      1  120.000(    27)      2  180.000(    42)      0
     13     13  O        7   2.851120(    12)      1  179.900(    28)      3  180.000(    43)      0
     14     14  C       13   1.207261(    13)      1  179.900(    29)      2  180.000(    44)      0
     15     15  H       14   1.100642(    14)      1  120.000(    30)      2   90.000(    45)      0
     16     16  H       14   1.100657(    15)      1  120.000(    31)      2  -90.000(    46)      0
     17     17  H        7   2.212235(    16)      1  100.000(    32)      2   90.000(    47)      0
     18     18  F       17   0.924494(    17)      7  160.000(    33)      1    0.000(    48)      0
 ---------------------------------------------------------------------------------------------------
                         Z-Matrix orientation:                         
 ---------------------------------------------------------------------
 Center     Atomic      Atomic             Coordinates (Angstroms)
 Number     Number       Type             X           Y           Z
 ---------------------------------------------------------------------
      1          6           0        0.000000    0.000000    0.000000
      2          6           0        0.000000    0.000000    1.378832
      3          6           0        1.198136    0.000000    2.070577
      4          6           0        2.397378    0.000000    1.378194
      5          6           0        2.397378    0.000000   -0.017732
      6          6           0        1.185160    0.000000   -0.717606
      7          9           0       -1.169719   -0.000000   -0.675338
      8          1           0       -0.941376   -0.000000    1.922336
      9          1           0        1.198136   -0.000000    3.156394
     10          1           0        3.337984   -0.000000    1.921253
     11          1           0        3.337774   -0.000000   -0.560669
     12          1           0        1.162513   -0.000000   -1.803592
     13          8           0       -3.636369   -0.000000   -2.105205
     14          6           0       -4.680115   -0.000000   -2.711896
     15          1           0       -5.156274    0.953184   -2.987806
     16          1           0       -5.156280   -0.953197   -2.987810
     17          1           0       -1.502403    2.178627   -0.867413
     18          9           0       -1.363374    3.089076   -0.787145
 ---------------------------------------------------------------------
                    Distance matrix (angstroms):
                    1          2          3          4          5
     1  C    0.000000
     2  C    1.378832   0.000000
     3  C    2.392241   1.383488   0.000000
     4  C    2.765292   2.397378   1.384766   0.000000
     5  C    2.397444   2.774493   2.408156   1.395926   0.000000
     6  C    1.385483   2.408248   2.788213   2.421126   1.399750
     7  F    1.350675   2.363865   3.625849   4.115966   3.627207
     8  H    2.140459   1.087007   2.144641   3.382805   3.861495
     9  H    3.376145   2.143655   1.085818   2.144803   3.393119
    10  H    3.851409   3.381769   2.145052   1.086118   2.155087
    11  H    3.384536   3.860363   3.391387   2.154886   1.085875
    12  H    2.145783   3.388106   3.874333   3.413013   2.171219
    13  O    4.201793   5.036040   6.388239   6.967078   6.384642
    14  C    5.409053   6.215910   7.577987   8.174335   7.572941
    15  H    6.035122   6.823727   8.177672   8.776569   8.172365
    16  H    6.035132   6.823736   8.177681   8.776579   8.172375
    17  H    2.784966   3.471203   4.546549   4.999746   4.547161
    18  F    3.467099   4.011563   4.926489   5.326757   4.927235
                    6          7          8          9         10
     6  C    0.000000
     7  F    2.355258   0.000000
     8  H    3.389904   2.607690   0.000000
     9  H    3.874022   4.504321   2.469901   0.000000
    10  H    3.405618   5.202084   4.279360   2.470734   0.000000
    11  H    2.158327   4.508951   4.947366   4.288894   2.481922
    12  H    1.086222   2.590804   4.278889   4.960115   4.313600
    13  O    5.017227   2.851120   4.846037   7.145409   8.053196
    14  C    6.195050   4.058380   5.954350   8.306062   9.260453
    15  H    6.802657   4.706239   6.540903   8.890347   9.856969
    16  H    6.802666   4.706249   6.540913   8.890356   9.856978
    17  H    3.462925   2.212235   3.583834   5.313224   5.996034
    18  F    4.005278   3.097159   4.130588   5.626298   6.243443
                   11         12         13         14         15
    11  H    0.000000
    12  H    2.505318   0.000000
    13  O    7.143127   4.808351   0.000000
    14  C    8.301465   5.912810   1.207261   0.000000
    15  H    8.885291   6.499076   1.999413   1.100642   0.000000
    16  H    8.885300   6.499085   1.999427   1.100657   1.906381
    17  H    5.316749   3.567159   3.291254   4.271579   4.398698
    18  F    5.629785   4.117726   4.055389   4.924208   4.877605
                   16         17         18
    16  H    0.000000
    17  H    5.258823   0.000000
    18  F    5.963978   0.924494   0.000000
 Stoichiometry    C7H8F2O
 Framework group  C1[X(C7H8F2O)]
 Deg. of freedom    48
 Full point group                 C1      NOp   1
 Largest Abelian subgroup         C1      NOp   1
 Largest concise Abelian subgroup C1      NOp   1
                         Standard orientation:                         
 ---------------------------------------------------------------------
 Center     Atomic      Atomic             Coordinates (Angstroms)
 Number     Number       Type             X           Y           Z
 ---------------------------------------------------------------------
      1          6           0       -0.644211   -0.354060   -0.007638
      2          6           0       -1.332470   -0.302185   -1.201283
      3          6           0       -2.713140   -0.213931   -1.200414
      4          6           0       -3.403865   -0.177695   -0.000763
      5          6           0       -2.707074   -0.230214    1.207679
      6          6           0       -1.310175   -0.319504    1.206800
      7          9           0        0.703713   -0.440220   -0.008486
      8          1           0       -0.790268   -0.330629   -2.142979
      9          1           0       -3.255137   -0.173080   -2.140398
     10          1           0       -4.487771   -0.108411   -0.000081
     11          1           0       -3.248711   -0.201799    2.148395
     12          1           0       -0.748524   -0.361538    2.135594
     13          8           0        3.549022   -0.622127   -0.005301
     14          6           0        4.753820   -0.699161   -0.002523
     15          1           0        5.363826    0.216949    0.004276
     16          1           0        5.242220   -1.685508   -0.008281
     17          1           0        1.226063    1.709417    0.005623
     18          9           0        1.123933    2.628232    0.011720
 ---------------------------------------------------------------------
 Rotational constants (GHZ):           2.0500682           0.4779672           0.4481513
 Standard basis: 6-311++G(d,p) (5D, 7F)
 There are   286 symmetry adapted cartesian basis functions of A   symmetry.
 There are   276 symmetry adapted basis functions of A   symmetry.
   276 basis functions,   432 primitive gaussians,   286 cartesian basis functions
    38 alpha electrons       38 beta electrons
       nuclear repulsion energy       469.8829168552 Hartrees.
 NAtoms=   18 NActive=   18 NUniq=   18 SFac= 1.00D+00 NAtFMM=   60 NAOKFM=F Big=F
 Integral buffers will be    131072 words long.
 Raffenetti 2 integral format.
 Two-electron integral symmetry is turned on.
 ------------------------------------------------------------------------------
 Polarizable Continuum Model (PCM)
 =================================
 Model                : PCM.
 Atomic radii         : UFF (Universal Force Field).
 Polarization charges : Total charges.
 Charge compensation  : None.
 Solution method      : On-the-fly selection.
 Cavity type          : Scaled VdW (van der Waals Surface) (Alpha=1.100).
 Cavity algorithm     : GePol (No added spheres)
                        Default sphere list used, NSphG=   18.
                        Lebedev-Laikov grids with approx.  5.0 points / Ang**2.
                        Smoothing algorithm: York/Karplus (Gamma=1.0000).
                        Polarization charges: spherical gaussians, with
                                              point-specific exponents (IZeta= 3).
                        Self-potential: point-specific (ISelfS= 7).
                        Self-field    : sphere-specific E.n sum rule (ISelfD= 2).
 1st derivatives      : Analytical E(r).r(x)/FMM algorithm (CHGder, D1EAlg=3).
                        Cavity 1st derivative terms included.
 Solvent              : Water, Eps=  78.355300 Eps(inf)=   1.777849
 ------------------------------------------------------------------------------
 Spheres list:
 ISph  on   Nord     Re0    Alpha      Xe            Ye            Ze
    1   C      1    1.9255  1.100     -0.644211     -0.354060     -0.007638
    2   C      2    1.9255  1.100     -1.332470     -0.302185     -1.201283
    3   C      3    1.9255  1.100     -2.713140     -0.213931     -1.200414
    4   C      4    1.9255  1.100     -3.403865     -0.177695     -0.000763
    5   C      5    1.9255  1.100     -2.707074     -0.230214      1.207679
    6   C      6    1.9255  1.100     -1.310175     -0.319504      1.206800
    7   F      7    1.6820  1.100      0.703713     -0.440220     -0.008486
    8   H      8    1.4430  1.100     -0.790268     -0.330629     -2.142979
    9   H      9    1.4430  1.100     -3.255137     -0.173080     -2.140398
   10   H     10    1.4430  1.100     -4.487771     -0.108411     -0.000081
   11   H     11    1.4430  1.100     -3.248711     -0.201799      2.148395
   12   H     12    1.4430  1.100     -0.748524     -0.361538      2.135594
   13   O     13    1.7500  1.100      3.549022     -0.622127     -0.005301
   14   C     14    1.9255  1.100      4.753820     -0.699161     -0.002523
   15   H     15    1.4430  1.100      5.363826      0.216949      0.004276
   16   H     16    1.4430  1.100      5.242220     -1.685508     -0.008281
   17   H     17    1.4430  1.100      1.226063      1.709417      0.005623
   18   F     18    1.6820  1.100      1.123933      2.628232      0.011720
 ------------------------------------------------------------------------------
 One-electron integrals computed using PRISM.
 NBasis=   276 RedAO= T EigKep=  1.05D-06  NBF=   276
 NBsUse=   276 1.00D-06 EigRej= -1.00D+00 NBFU=   276
 Initial guess from the checkpoint file:  "model_H1.chk"
 B after Tr=    -0.000000    0.000000   -0.000000
         Rot=    0.999996   -0.000725   -0.000354   -0.002605 Ang=  -0.31 deg.
 ExpMin= 3.60D-02 ExpMax= 1.14D+04 ExpMxC= 1.72D+03 IAcc=3 IRadAn=         5 AccDes= 0.00D+00
 Harris functional with IExCor= 1009 and IRadAn=       5 diagonalized for initial guess.
 HarFok:  IExCor= 1009 AccDes= 0.00D+00 IRadAn=         5 IDoV= 1 UseB2=F ITyADJ=14
 ICtDFT=  3500011 ScaDFX=  1.000000  1.000000  1.000000  1.000000
 FoFCou: FMM=F IPFlag=           0 FMFlag=      100000 FMFlg1=           0
         NFxFlg=           0 DoJE=T BraDBF=F KetDBF=T FulRan=T
         wScrn=  0.000000 ICntrl=       500 IOpCl=  0 I1Cent=   200000004 NGrid=           0
         NMat0=    1 NMatS0=      1 NMatT0=    0 NMatD0=    1 NMtDS0=    0 NMtDT0=    0
 Petite list used in FoFCou.
 Requested convergence on RMS density matrix=1.00D-08 within 128 cycles.
 Requested convergence on MAX density matrix=1.00D-06.
 Requested convergence on             energy=1.00D-06.
 No special actions if energy rises.
 Inv3:  Mode=1 IEnd=    10434675.
[...]
      7          9           0       -1.179050   -0.000000   -0.680725
      8          1           0       -0.938797   -0.000000    1.919771
      9          1           0        1.197718   -0.000000    3.151903
     10          1           0        3.337108   -0.000000    1.917084
     11          1           0        3.336735   -0.000000   -0.561567
     12          1           0        1.163548   -0.000000   -1.803118
     13          8           0       -4.239808   -0.000000   -2.454984
     14          6           0       -5.281392   -0.000000   -3.060524
     15          1           0       -5.757500    0.953101   -3.336425
     16          1           0       -5.757510   -0.953121   -3.336431
     17          1           0       -1.457788    1.825351   -0.841654
     18          9           0       -1.318478    2.737642   -0.761224
 ---------------------------------------------------------------------
                    Distance matrix (angstroms):
                    1          2          3          4          5
     1  C    0.000000
     2  C    1.377756   0.000000
     3  C    2.390891   1.383006   0.000000
     4  C    2.765572   2.399201   1.387352   0.000000
     5  C    2.399286   2.776809   2.410339   1.395864   0.000000
     6  C    1.388398   2.410426   2.789398   2.421008   1.399675
     7  F    1.361450   2.372236   3.634755   4.127018   3.638690
     8  H    2.137021   1.084030   2.141739   3.382066   3.860833
     9  H    3.371798   2.140591   1.082645   2.144499   3.392096
    10  H    3.848571   3.380409   2.144795   1.083003   2.152453
    11  H    3.383660   3.859375   3.390669   2.152096   1.082572
    12  H    2.145945   3.387005   3.872527   3.410422   2.169181
    13  O    4.899278   5.715407   7.073576   7.664834   7.071366
    14  C    6.104089   6.898654   8.263991   8.869642   8.260422
    15  H    6.722272   7.502047   8.860298   9.468009   8.856465
    16  H    6.722287   7.502061   8.860312   9.468022   8.856479
    17  H    2.483029   3.222241   4.342469   4.808785   4.345448
    18  F    3.132496   3.715952   4.673067   5.087412   4.675983
                    6          7          8          9         10
     6  C    0.000000
     7  F    2.366425   0.000000
     8  H    3.389429   2.611570   0.000000
     9  H    3.872037   4.509775   2.466343   0.000000
    10  H    3.402588   5.210019   4.275906   2.470176   0.000000
    11  H    2.155528   4.517357   4.943401   4.285470   2.478651
    12  H    1.083254   2.597601   4.275483   4.955139   4.308627
    13  O    5.697413   3.537829   5.480434   7.810499   8.747837
    14  C    6.878822   4.742642   6.607682   8.976253   9.952644
    15  H    7.481991   5.378043   7.194157   9.559387  10.546073
    16  H    7.482005   5.378058   7.194171   9.559400  10.546087
    17  H    3.215871   1.853510   3.350631   5.131484   5.825253
    18  F    3.711337   2.742372   3.850529   5.398008   6.028474
                   11         12         13         14         15
    11  H    0.000000
    12  H    2.502837   0.000000
    13  O    7.809548   5.442535   0.000000
    14  C    8.973121   6.566454   1.204813   0.000000
    15  H    9.555802   7.152646   1.997180   1.100546   0.000000
    16  H    9.555816   7.152660   1.997200   1.100570   1.906223
    17  H    5.137880   3.335824   3.697888   4.782806   5.047002
    18  F    5.404216   3.839359   4.347146   5.337242   5.433338
                   16         17         18
    16  H    0.000000
    17  H    5.694860   0.000000
    18  F    6.321268   0.926364   0.000000
 Stoichiometry    C7H8F2O
 Framework group  C1[X(C7H8F2O)]
 Deg. of freedom    48
 Full point group                 C1      NOp   1
 Largest Abelian subgroup         C1      NOp   1
 Largest concise Abelian subgroup C1      NOp   1
                         Standard orientation:                         
 ---------------------------------------------------------------------
 Center     Atomic      Atomic             Coordinates (Angstroms)
 Number     Number       Type             X           Y           Z
 ---------------------------------------------------------------------
      1          6           0       -0.773460   -0.320484   -0.012746
      2          6           0       -1.461887   -0.273371   -1.205247
      3          6           0       -2.844003   -0.223757   -1.204324
      4          6           0       -3.537240   -0.221429   -0.002591
      5          6           0       -2.839764   -0.269162    1.205584
      6          6           0       -1.440991   -0.319373    1.204649
      7          9           0        0.587113   -0.369324   -0.013655
      8          1           0       -0.920216   -0.275190   -2.144241
      9          1           0       -3.384971   -0.186735   -2.141395
     10          1           0       -4.619545   -0.182578   -0.001868
     11          1           0       -3.380707   -0.267345    2.143314
     12          1           0       -0.879508   -0.356917    2.130267
     13          8           0        4.122659   -0.496355   -0.009843
     14          6           0        5.326691   -0.539644   -0.007027
     15          1           0        5.910806    0.392919    0.011371
     16          1           0        5.842423   -1.511741   -0.024394
     17          1           0        0.974258    1.442984    0.020378
     18          9           0        0.846233    2.360297    0.037602
 ---------------------------------------------------------------------
 Rotational constants (GHZ):           2.3583470           0.4078406           0.3957278

 **********************************************************************

            Population analysis using the SCF Density.

 **********************************************************************

 Orbital symmetries:
       Occupied  (A) (A) (A) (A) (A) (A) (A) (A) (A) (A) (A) (A)
                 (A) (A) (A) (A) (A) (A) (A) (A) (A) (A) (A) (A)
                 (A) (A) (A) (A) (A) (A) (A) (A) (A) (A) (A) (A)
                 (A) (A)
       Virtual   (A) (A) (A) (A) (A) (A) (A) (A) (A) (A) (A) (A)
                 (A) (A) (A) (A) (A) (A) (A) (A) (A) (A) (A) (A)
                 (A) (A) (A) (A) (A) (A) (A) (A) (A) (A) (A) (A)
                 (A) (A) (A) (A) (A) (A) (A) (A) (A) (A) (A) (A)
                 (A) (A) (A) (A) (A) (A) (A) (A) (A) (A) (A) (A)
                 (A) (A) (A) (A) (A) (A) (A) (A) (A) (A) (A) (A)
                 (A) (A) (A) (A) (A) (A) (A) (A) (A) (A) (A) (A)
                 (A) (A) (A) (A) (A) (A) (A) (A) (A) (A) (A) (A)
                 (A) (A) (A) (A) (A) (A) (A) (A) (A) (A) (A) (A)
                 (A) (A) (A) (A) (A) (A) (A) (A) (A) (A) (A) (A)
                 (A) (A) (A) (A) (A) (A) (A) (A) (A) (A) (A) (A)
                 (A) (A) (A) (A) (A) (A) (A) (A) (A) (A) (A) (A)
                 (A) (A) (A) (A) (A) (A) (A) (A) (A) (A) (A) (A)
                 (A) (A) (A) (A) (A) (A) (A) (A) (A) (A) (A) (A)
                 (A) (A) (A) (A) (A) (A) (A) (A) (A) (A) (A) (A)
                 (A) (A) (A) (A) (A) (A) (A) (A) (A) (A) (A) (A)
                 (A) (A) (A) (A) (A) (A) (A) (A) (A) (A) (A) (A)
                 (A) (A) (A) (A) (A) (A) (A) (A) (A) (A) (A) (A)
                 (A) (A) (A) (A) (A) (A) (A) (A) (A) (A) (A) (A)
                 (A) (A) (A) (A) (A) (A) (A) (A) (A) (A)
 The electronic state is 1-A.
 Alpha  occ. eigenvalues --  -25.28260 -25.23050 -19.64636 -10.64424 -10.63940
 Alpha  occ. eigenvalues --  -10.56364 -10.56236 -10.56087 -10.55964 -10.55456
 Alpha  occ. eigenvalues --   -1.39871  -1.34074  -1.19313  -0.98406  -0.86661
 Alpha  occ. eigenvalues --   -0.86288  -0.72300  -0.72199  -0.71932  -0.65383
 Alpha  occ. eigenvalues --   -0.64341  -0.59247  -0.58676  -0.58372  -0.58341
 Alpha  occ. eigenvalues --   -0.54041  -0.52663  -0.51524  -0.51485  -0.50959
 Alpha  occ. eigenvalues --   -0.49994  -0.47841  -0.45263  -0.44167  -0.42005
 Alpha  occ. eigenvalues --   -0.34942  -0.32795  -0.32012
 Alpha virt. eigenvalues --   -0.00779  -0.00262   0.00159   0.00784   0.01008
 Alpha virt. eigenvalues --    0.01454   0.01970   0.02661   0.03417   0.03729
 Alpha virt. eigenvalues --    0.04680   0.06246   0.06686   0.07542   0.07545
 Alpha virt. eigenvalues --    0.09100   0.09835   0.11111   0.11134   0.11846
 Alpha virt. eigenvalues --    0.12848   0.13037   0.13346   0.13531   0.13652
 Alpha virt. eigenvalues --    0.13913   0.13990   0.14911   0.15164   0.15306
 Alpha virt. eigenvalues --    0.16096   0.16463   0.16911   0.18270   0.19516
 Alpha virt. eigenvalues --    0.19913   0.20297   0.21280   0.21938   0.21971
 Alpha virt. eigenvalues --    0.22817   0.24161   0.25211   0.25800   0.27160
 Alpha virt. eigenvalues --    0.28026   0.29653   0.29748   0.30143   0.30622
 Alpha virt. eigenvalues --    0.30973   0.32491   0.32659   0.32918   0.33783
 Alpha virt. eigenvalues --    0.36142   0.37505   0.38037   0.39943   0.40412
 Alpha virt. eigenvalues --    0.40947   0.41609   0.42231   0.45975   0.48864
 Alpha virt. eigenvalues --    0.49541   0.51614   0.52568   0.54469   0.54532
 Alpha virt. eigenvalues --    0.56139   0.57614   0.58193   0.58481   0.58524
 Alpha virt. eigenvalues --    0.59401   0.59522   0.61057   0.62953   0.63239
 Alpha virt. eigenvalues --    0.64267   0.66787   0.67578   0.70824   0.71687
 Alpha virt. eigenvalues --    0.72450   0.76355   0.76627   0.79843   0.81182
 Alpha virt. eigenvalues --    0.82744   0.84757   0.87808   0.88628   0.90018
 Alpha virt. eigenvalues --    0.91293   0.92572   0.93624   0.93927   0.96733
 Alpha virt. eigenvalues --    1.03025   1.04242   1.04667   1.04949   1.06609
 Alpha virt. eigenvalues --    1.08096   1.10966   1.11988   1.14151   1.15252
 Alpha virt. eigenvalues --    1.17939   1.21445   1.22730   1.31696   1.33260
 Alpha virt. eigenvalues --    1.33745   1.36156   1.39300   1.40876   1.44223
 Alpha virt. eigenvalues --    1.45558   1.47113   1.48837   1.48911   1.51508
 Alpha virt. eigenvalues --    1.53837   1.54980   1.56297   1.58948   1.59902
 Alpha virt. eigenvalues --    1.60732   1.61284   1.62157   1.67238   1.68155
 Alpha virt. eigenvalues --    1.68685   1.70143   1.73411   1.76901   1.77053
 Alpha virt. eigenvalues --    1.77999   1.79819   1.86107   1.86391   1.90229
 Alpha virt. eigenvalues --    1.91004   1.93375   1.94378   1.96011   1.96047
 Alpha virt. eigenvalues --    1.98692   1.99087   2.01272   2.04239   2.06436
 Alpha virt. eigenvalues --    2.09990   2.10046   2.12935   2.17249   2.29658
 Alpha virt. eigenvalues --    2.30148   2.35034   2.37619   2.43617   2.43817
 Alpha virt. eigenvalues --    2.47040   2.48474   2.50162   2.52386   2.52672
 Alpha virt. eigenvalues --    2.56913   2.64743   2.66253   2.69474   2.71519
 Alpha virt. eigenvalues --    2.72445   2.72822   2.73606   2.75684   2.76541
 Alpha virt. eigenvalues --    2.79354   2.83781   2.85067   2.85413   2.87881
 Alpha virt. eigenvalues --    2.93779   2.94157   2.94225   2.97485   2.97979
 Alpha virt. eigenvalues --    3.13701   3.18189   3.24269   3.38522   3.39108
 Alpha virt. eigenvalues --    3.41962   3.47910   3.52735   3.55157   3.56162
 Alpha virt. eigenvalues --    3.66276   3.74434   3.78624   3.85419   3.89030
 Alpha virt. eigenvalues --    3.89149   3.93503   3.95585   4.02682   4.04327
 Alpha virt. eigenvalues --    4.08795   4.12560   4.15008   4.15657   4.18572
 Alpha virt. eigenvalues --    4.19426   4.85451   4.88271   4.93464   5.09604
 Alpha virt. eigenvalues --    5.20810   5.76905   6.42051   6.47473   6.52054
 Alpha virt. eigenvalues --    6.57708   6.81905   6.90663  23.65790  23.99074
 Alpha virt. eigenvalues --   24.00779  24.04893  24.15314  24.16730  24.27485
 Alpha virt. eigenvalues --   50.03630  66.90468  66.94218
          Condensed to atoms (all electrons):
               1          2          3          4          5          6
     1  C   12.785691  -4.581466   2.203479  -2.527419   2.167705  -3.991891
     2  C   -4.581466  12.460999  -2.404015   2.149688  -2.382001   0.569706
     3  C    2.203479  -2.404015   8.199911  -1.692106   1.999988  -2.395549
     4  C   -2.527419   2.149688  -1.692106   7.556112  -1.621993   2.042295
     5  C    2.167705  -2.382001   1.999988  -1.621993   7.994125  -2.240554
     6  C   -3.991891   0.569706  -2.395549   2.042295  -2.240554  11.842282
     7  F    0.765539  -0.496114   0.132449  -0.081171   0.129630  -0.475874
     8  H   -0.232421   0.616303  -0.079568   0.056946  -0.040110  -0.002054
     9  H    0.045076  -0.049663   0.361118  -0.038922  -0.000568   0.014406
    10  H    0.009438  -0.013779   0.000227   0.351442   0.000290  -0.012272
    11  H    0.036705   0.016653  -0.002499  -0.034372   0.359169  -0.045230
    12  H   -0.213041  -0.001277  -0.041826   0.053759  -0.076212   0.598383
    13  O    0.007002  -0.000656  -0.000740   0.000129  -0.000699  -0.000828
    14  C    0.000665  -0.001539   0.000496  -0.000150   0.000488  -0.001250
    15  H    0.000008   0.000066  -0.000034   0.000010  -0.000033   0.000049
    16  H    0.000025  -0.000037   0.000018  -0.000006   0.000017  -0.000036
    17  H   -0.074559   0.034735  -0.003258   0.006473  -0.003359   0.033301
    18  F    0.115587  -0.023701  -0.025940   0.011010  -0.025018  -0.022556
               7          8          9         10         11         12
     1  C    0.765539  -0.232421   0.045076   0.009438   0.036705  -0.213041
     2  C   -0.496114   0.616303  -0.049663  -0.013779   0.016653  -0.001277
     3  C    0.132449  -0.079568   0.361118   0.000227  -0.002499  -0.041826
     4  C   -0.081171   0.056946  -0.038922   0.351442  -0.034372   0.053759
     5  C    0.129630  -0.040110  -0.000568   0.000290   0.359169  -0.076212
     6  C   -0.475874  -0.002054   0.014406  -0.012272  -0.045230   0.598383
     7  F    9.198601  -0.027218   0.001668  -0.000791   0.001471  -0.027073
     8  H   -0.027218   0.454434  -0.003319   0.000924   0.000662   0.001858
     9  H    0.001668  -0.003319   0.427409   0.001218  -0.000463   0.000587
    10  H   -0.000791   0.000924   0.001218   0.432579   0.001408   0.000865
    11  H    0.001471   0.000662  -0.000463   0.001408   0.426829  -0.002459
    12  H   -0.027073   0.001858   0.000587   0.000865  -0.002459   0.451711
    13  O    0.003808   0.000928  -0.000010   0.000000  -0.000010   0.000963
    14  C    0.000410  -0.000290   0.000006  -0.000001   0.000005  -0.000292
    15  H   -0.000222  -0.000005  -0.000000   0.000000  -0.000000  -0.000006
    16  H   -0.000050  -0.000004   0.000000  -0.000000   0.000000  -0.000005
    17  H    0.040422   0.000073  -0.000035  -0.000008  -0.000028   0.000037
    18  F   -0.019699  -0.000240  -0.000809   0.000172  -0.000819  -0.000195
              13         14         15         16         17         18
     1  C    0.007002   0.000665   0.000008   0.000025  -0.074559   0.115587
     2  C   -0.000656  -0.001539   0.000066  -0.000037   0.034735  -0.023701
     3  C   -0.000740   0.000496  -0.000034   0.000018  -0.003258  -0.025940
     4  C    0.000129  -0.000150   0.000010  -0.000006   0.006473   0.011010
     5  C   -0.000699   0.000488  -0.000033   0.000017  -0.003359  -0.025018
     6  C   -0.000828  -0.001250   0.000049  -0.000036   0.033301  -0.022556
     7  F    0.003808   0.000410  -0.000222  -0.000050   0.040422  -0.019699
     8  H    0.000928  -0.000290  -0.000005  -0.000004   0.000073  -0.000240
     9  H   -0.000010   0.000006  -0.000000   0.000000  -0.000035  -0.000809
    10  H    0.000000  -0.000001   0.000000  -0.000000  -0.000008   0.000172
    11  H   -0.000010   0.000005  -0.000000   0.000000  -0.000028  -0.000819
    12  H    0.000963  -0.000292  -0.000006  -0.000005   0.000037  -0.000195
    13  O    8.145353   0.313164  -0.082197  -0.081512   0.001697  -0.000895
    14  C    0.313164   4.856422   0.397777   0.398778   0.000490  -0.000444
    15  H   -0.082197   0.397777   0.642233  -0.097432  -0.000292   0.000181
    16  H   -0.081512   0.398778  -0.097432   0.643045   0.000027  -0.000064
    17  H    0.001697   0.000490  -0.000292   0.000027   0.389807   0.310399
    18  F   -0.000895  -0.000444   0.000181  -0.000064   0.310399   8.962029
 Mulliken charges:
               1
     1  C   -0.516122
     2  C    0.106099
     3  C   -0.252151
     4  C   -0.231725
     5  C   -0.260866
     6  C    0.087671
     7  F   -0.145787
     8  H    0.253104
     9  H    0.242302
    10  H    0.228289
    11  H    0.242980
    12  H    0.254223
    13  O   -0.305496
    14  C    0.035264
    15  H    0.139897
    16  H    0.137235
    17  H    0.264079
    18  F   -0.278997
 Sum of Mulliken charges =  -0.00000
 Mulliken charges with hydrogens summed into heavy atoms:
               1
     1  C   -0.516122
     2  C    0.359203
     3  C   -0.009849
     4  C   -0.003436
     5  C   -0.017886
     6  C    0.341895
     7  F   -0.145787
    13  O   -0.305496
    14  C    0.312397
    18  F   -0.014918
 Electronic spatial extent (au):  <R**2>=           2775.3570
 Charge=             -0.0000 electrons
 Dipole moment (field-independent basis, Debye):
    X=              0.6923    Y=             -2.4752    Z=             -0.0538  Tot=              2.5708
 Quadrupole moment (field-independent basis, Debye-Ang):
   XX=            -19.4588   YY=            -68.8201   ZZ=            -50.3318
   XY=             -3.1925   XZ=              0.1082   YZ=             -0.3352
 Traceless Quadrupole moment (field-independent basis, Debye-Ang):
   XX=             26.7448   YY=            -22.6166   ZZ=             -4.1282
   XY=             -3.1925   XZ=              0.1082   YZ=             -0.3352
 Octapole moment (field-independent basis, Debye-Ang**2):
  XXX=            200.9945  YYY=             -7.2417  ZZZ=             -0.0901  XYY=             20.1849
  XXY=            -15.1195  XXZ=             -0.3828  XZZ=             -2.3196  YZZ=              1.7905
  YYZ=             -0.2972  XYZ=              0.3714
 Hexadecapole moment (field-independent basis, Debye-Ang**3):
 XXXX=          -1450.5648 YYYY=           -346.3618 ZZZZ=           -265.8524 XXXY=           -113.9020
 XXXZ=             -0.1745 YYYX=            -32.0146 YYYZ=              0.1431 ZZZX=              0.7003
 ZZZY=             -0.7071 XXYY=           -548.4145 XXZZ=           -507.1815 YYZZ=           -107.6492
 XXYZ=             -0.6798 YYXZ=             -0.3854 ZZXY=              3.0628
 N-N= 4.641911646472D+02 E-N=-2.213411719702D+03  KE= 5.445877963673D+02
 1\1\GINC-R820\POpt\RM062X\6-311++G(d,p)\C7H8F2O1\ZJXU\29-Mar-2024\1\\#
  m062x 6-311++G(d,p) opt=z-matrix scrf=(solvent=water)\\test\\0,1\C\C,
 1,d1\C,2,d2,1,120.\C,3,d3,2,120.,1,0.,0\C,4,d4,3,120.,2,0.,0\C,5,d5,4,
 120.,3,0.,0\F,1,d6,2,120.,3,180.,0\H,2,d7,3,120.,4,180.,0\H,3,d8,4,120
 .,5,180.,0\H,4,d9,5,120.,6,180.,0\H,5,d10,6,120.,1,180.,0\H,6,d11,1,12
 0.,2,180.,0\O,7,d12,1,179.9,3,180.,0\C,13,d13,1,179.9,2,180.,0\H,14,d1
 4,1,120.,2,90.,0\H,14,d15,1,120.,2,-90.,0\H,7,d16,1,100.,2,90.,0\F,17,
 d17,7,160.,1,0.,0\\d1=1.37775571\d2=1.38300598\d3=1.38735209\d4=1.3958
 6373\d5=1.39967495\d6=1.36145023\d7=1.0840297\d8=1.08264464\d9=1.08300
 251\d10=1.08257153\d11=1.08325437\d12=3.53782919\d13=1.20481304\d14=1.
 10054643\d15=1.1005699\d16=1.85351\d17=0.92636437\\Version=ES64L-G16Re
 vB.01\State=1-A\HF=-546.3908547\RMSD=7.669e-09\RMSF=4.221e-03\Dipole=-
 0.2674397,-0.9636414,-0.1511004\Quadrupole=14.1312263,-16.9422123,2.81
 0986,0.9155578,10.0525327,0.5130327\PG=C01 [X(C7H8F2O1)]\\@


 ALMOST ALL THE CHEMICAL PROCESSES WHICH OCCUR IN NATURE,
 WHETHER IN ANIMAL OR VEGETABLE ORGANISMS,
 OR IN THE NON-LIVING SURFACE OF THE EARTH ... 
 TAKE PLACE BETWEEN SUBSTANCES IN SOLUTION

                                    -- W. OSTWALD, 1890
 Job cpu time:       0 days  2 hours 35 minutes 47.0 seconds.
 Elapsed time:       0 days  1 hours 17 minutes 56.5 seconds.
 File lengths (MBytes):  RWF=    159 Int=      0 D2E=      0 Chk=     11 Scr=      1
 Normal termination of Gaussian 16 at Fri Mar 29 19:39:03 2024.
