 Entering Gaussian System, Link 0=g16
 Input=model_H3.gjf
 Output=model_H3.log
 Initial command:
 /home/zjxu/prog/g16/l1.exe "/home/zjxu/zjhan/5_model/amide/chloroform/Gau-45868.inp" -scrdir="/home/zjxu/zjhan/5_model/amide/chloroform/"
 Entering Link 1 = /home/zjxu/prog/g16/l1.exe PID=     45869.
  
 Copyright (c) 1988-2017, Gaussian, Inc.  All Rights Reserved.
  
 This is part of the Gaussian(R) 16 program.  It is based on
 the Gaussian(R) 09 system (copyright 2009, Gaussian, Inc.),
 the Gaussian(R) 03 system (copyright 2003, Gaussian, Inc.),
 the Gaussian(R) 98 system (copyright 1998, Gaussian, Inc.),
 the Gaussian(R) 94 system (copyright 1995, Gaussian, Inc.),
 the Gaussian 92(TM) system (copyright 1992, Gaussian, Inc.),
 the Gaussian 90(TM) system (copyright 1990, Gaussian, Inc.),
 the Gaussian 88(TM) system (copyright 1988, Gaussian, Inc.),
 the Gaussian 86(TM) system (copyright 1986, Carnegie Mellon
 University), and the Gaussian 82(TM) system (copyright 1983,
 Carnegie Mellon University). Gaussian is a federally registered
 trademark of Gaussian, Inc.
  
 This software contains proprietary and confidential information,
 including trade secrets, belonging to Gaussian, Inc.
  
 This software is provided under written license and may be
 used, copied, transmitted, or stored only in accord with that
 written license.
  
 The following legend is applicable only to US Government
 contracts under FAR:
  
                    RESTRICTED RIGHTS LEGEND
  
 Use, reproduction and disclosure by the US Government is
 subject to restrictions as set forth in subparagraphs (a)
 and (c) of the Commercial Computer Software - Restricted
 Rights clause in FAR 52.227-19.
  
 Gaussian, Inc.
 340 Quinnipiac St., Bldg. 40, Wallingford CT 06492
  
  
 ---------------------------------------------------------------
 Warning -- This program may not be used in any manner that
 competes with the business of Gaussian, Inc. or will provide
 assistance to any competitor of Gaussian, Inc.  The licensee
 of this program is prohibited from giving any competitor of
 Gaussian, Inc. access to this program.  By using this program,
 the user acknowledges that Gaussian, Inc. is engaged in the
 business of creating and licensing software in the field of
 computational chemistry and represents and warrants to the
 licensee that it is not a competitor of Gaussian, Inc. and that
 it will not use this program in any manner prohibited above.
 ---------------------------------------------------------------
  

 Cite this work as:
 Gaussian 16, Revision B.01,
 M. J. Frisch, G. W. Trucks, H. B. Schlegel, G. E. Scuseria, 
 M. A. Robb, J. R. Cheeseman, G. Scalmani, V. Barone, 
 G. A. Petersson, H. Nakatsuji, X. Li, M. Caricato, A. V. Marenich, 
 J. Bloino, B. G. Janesko, R. Gomperts, B. Mennucci, H. P. Hratchian, 
 J. V. Ortiz, A. F. Izmaylov, J. L. Sonnenberg, D. Williams-Young, 
 F. Ding, F. Lipparini, F. Egidi, J. Goings, B. Peng, A. Petrone, 
 T. Henderson, D. Ranasinghe, V. G. Zakrzewski, J. Gao, N. Rega, 
 G. Zheng, W. Liang, M. Hada, M. Ehara, K. Toyota, R. Fukuda, 
 J. Hasegawa, M. Ishida, T. Nakajima, Y. Honda, O. Kitao, H. Nakai, 
 T. Vreven, K. Throssell, J. A. Montgomery, Jr., J. E. Peralta, 
 F. Ogliaro, M. J. Bearpark, J. J. Heyd, E. N. Brothers, K. N. Kudin, 
 V. N. Staroverov, T. A. Keith, R. Kobayashi, J. Normand, 
 K. Raghavachari, A. P. Rendell, J. C. Burant, S. S. Iyengar, 
 J. Tomasi, M. Cossi, J. M. Millam, M. Klene, C. Adamo, R. Cammi, 
 J. W. Ochterski, R. L. Martin, K. Morokuma, O. Farkas, 
 J. B. Foresman, and D. J. Fox, Gaussian, Inc., Wallingford CT, 2016.
 
 ******************************************
 Gaussian 16:  ES64L-G16RevB.01 20-Dec-2017
                 3-Apr-2024 
 ******************************************
 %mem=4GB
 %nprocshared=4
 Will use up to    4 processors via shared memory.
 %chk=model_H3.chk
 --------------------------------------------------------------------
 # opt=(z-matrix,loose) 6-311++g(d,p) m062x scrf=(solvent=chloroform)
 --------------------------------------------------------------------
 1/7=-1,10=7,18=40,26=3,38=1/1,3;
 2/12=2,17=6,18=5,29=3,40=1/2;
 3/5=4,6=6,7=1111,11=2,25=1,30=1,70=2201,71=1,72=7,74=-55/1,2,3;
 4//1;
 5/5=2,38=5,53=7/2;
 6/7=2,8=2,9=2,10=2,28=1/1;
 7/29=1/1,2,3,16;
 1/7=-1,10=7,18=40,26=3/3(2);
 2/29=3/2;
 99//99;
 2/29=3/2;
 3/5=4,6=6,7=1111,11=2,25=1,30=1,70=2205,71=1,72=7,74=-55/1,2,3;
 4/5=5,16=3,69=1/1;
 5/5=2,38=5,53=7/2;
 7//1,2,3,16;
 1/7=-1,18=40,26=3/3(-5);
 2/29=3/2;
 6/7=2,8=2,9=2,10=2,19=2,28=1/1;
 99/9=1/99;
 ----
 test
 ----
 Symbolic Z-matrix:
 Charge =  0 Multiplicity = 1
 C
 C                    1    B1
 C                    2    B2       1     120. 
 C                    3    B3       2     120.     1     0.       0
 C                    4    B4       3     120.     2     0.       0
 C                    1    B5       2     119.97771  3     1.71723  0
 F                    1    B6       2     120.     3    -180.     0
 H                    2    B7       1     120.     6    -178.28277  0
 H                    3    B8       2     120.     1     180.     0
 H                    4    B9       3     120.     2     180.     0
 H                    5    B10      4     120.     3     180.     0
 H                    6    B11      1     119.91553  2    -177.77152  0
 O                    1    B12      2     120.     3    -180.     0
 C                    13   B13      1     179.9    2     180.     0
 H                    14   B14      13    119.99997  1    -90.0449  0
 H                    14   B15      13    119.99997  1     90.0449  0
 H                    7    B16      1     100.     2     90.      0
 N                    17   B17      7     179.9    1     90.      0
 C                    18   B18      17    119.5    7     0.       0
 O                    19   B19      18    123.2    17   -180.     0
 C                    18   B20      17    121.9    19   -180.     0
 H                    21   B21      18    110.7    17   -180.     0
 H                    21   B22      18    110.7    17   -60.      0
 H                    21   B23      18    110.7    17    60.      0
 H                    19   B24      18    113.46722  17    0.       0
 H                    7    B25      1     100.     2    -30.      0
 N                    26   B26      7     179.9    1    -30.      0
 C                    27   B27      26    119.5    7     120.     0
 O                    28   B28      27    123.2    26   -180.     0
 C                    27   B29      26    121.9    28   -180.     0
 H                    30   B30      27    110.7    26    180.     0
 H                    30   B31      27    110.7    26   -60.      0
 H                    30   B32      27    110.7    26    60.      0
 H                    28   B33      27    113.46722  26    0.       0
 H                    7    B34      1     100.     2    -150.     0
 N                    35   B35      7     179.9    1    -150.     0
 C                    36   B36      35    119.5    7     60.      0
 O                    37   B37      36    123.2    35   -180.     0
 C                    36   B38      35    121.9    37   -180.     0
 H                    39   B39      36    110.7    35    180.     0
 H                    39   B40      36    110.7    35   -60.      0
 H                    39   B41      36    110.7    35    60.      0
 H                    37   B42      36    113.46722  35    0.       0
       Variables:
  B1                    1.3                      
  B2                    1.3                      
  B3                    1.3                      
  B4                    1.3                      
  B5                    1.3                      
  B6                    1.4                      
  B7                    1.                       
  B8                    1.                       
  B9                    1.                       
  B10                   1.                       
  B11                   1.00101                  
  B12                   4.2                      
  B13                   1.2                      
  B14                   1.                       
  B15                   1.                       
  B16                   2.12                     
  B17                   1.                       
  B18                   1.33                     
  B19                   1.23                     
  B20                   1.45                     
  B21                   1.                       
  B22                   1.                       
  B23                   1.                       
  B24                   1.                       
  B25                   2.12                     
  B26                   1.                       
  B27                   1.33                     
  B28                   1.23                     
  B29                   1.45                     
  B30                   1.                       
  B31                   1.                       
  B32                   1.                       
  B33                   1.                       
  B34                   2.12                     
  B35                   1.                       
  B36                   1.33                     
  B37                   1.23                     
  B38                   1.45                     
  B39                   1.                       
  B40                   1.                       
  B41                   1.                       
  B42                   1.                       
 

 GradGradGradGradGradGradGradGradGradGradGradGradGradGradGradGradGradGrad
 Berny optimization.
 Initialization pass.
                       ----------------------------
                       !    Initial Parameters    !
                       ! (Angstroms and Degrees)  !
 ----------------------                            ----------------------
 !      Name          Value   Derivative information (Atomic Units)     !
 ------------------------------------------------------------------------
 !       B1          1.3      estimate D2E/DX2                          !
 !       B2          1.3      estimate D2E/DX2                          !
 !       B3          1.3      estimate D2E/DX2                          !
 !       B4          1.3      estimate D2E/DX2                          !
 !       B5          1.3      estimate D2E/DX2                          !
 !       B6          1.4      estimate D2E/DX2                          !
 !       B7          1.0      estimate D2E/DX2                          !
 !       B8          1.0      estimate D2E/DX2                          !
 !       B9          1.0      estimate D2E/DX2                          !
 !       B10         1.0      estimate D2E/DX2                          !
 !       B11         1.001    estimate D2E/DX2                          !
 !       B12         4.2      estimate D2E/DX2                          !
 !       B13         1.2      estimate D2E/DX2                          !
 !       B14         1.0      estimate D2E/DX2                          !
 !       B15         1.0      estimate D2E/DX2                          !
 !       B16         2.12     estimate D2E/DX2                          !
 !       B17         1.0      estimate D2E/DX2                          !
 !       B18         1.33     estimate D2E/DX2                          !
 !       B19         1.23     estimate D2E/DX2                          !
 !       B20         1.45     estimate D2E/DX2                          !
 !       B21         1.0      estimate D2E/DX2                          !
 !       B22         1.0      estimate D2E/DX2                          !
 !       B23         1.0      estimate D2E/DX2                          !
 !       B24         1.0      estimate D2E/DX2                          !
 !       B25         2.12     estimate D2E/DX2                          !
 !       B26         1.0      estimate D2E/DX2                          !
 !       B27         1.33     estimate D2E/DX2                          !
 !       B28         1.23     estimate D2E/DX2                          !
 !       B29         1.45     estimate D2E/DX2                          !
 !       B30         1.0      estimate D2E/DX2                          !
 !       B31         1.0      estimate D2E/DX2                          !
 !       B32         1.0      estimate D2E/DX2                          !
 !       B33         1.0      estimate D2E/DX2                          !
 !       B34         2.12     estimate D2E/DX2                          !
 !       B35         1.0      estimate D2E/DX2                          !
 !       B36         1.33     estimate D2E/DX2                          !
 !       B37         1.23     estimate D2E/DX2                          !
 !       B38         1.45     estimate D2E/DX2                          !
 !       B39         1.0      estimate D2E/DX2                          !
 !       B40         1.0      estimate D2E/DX2                          !
 !       B41         1.0      estimate D2E/DX2                          !
 !       B42         1.0      estimate D2E/DX2                          !
 ------------------------------------------------------------------------
 Trust Radius=3.00D-01 FncErr=1.00D-07 GrdErr=1.00D-06 EigMax=2.50D+02 EigMin=1.00D-04
 Number of steps in this run=     52 maximum allowed number of steps=    100.
 GradGradGradGradGradGradGradGradGradGradGradGradGradGradGradGradGradGrad

 ---------------------------------------------------------------------------------------------------
                            Z-MATRIX (ANGSTROMS AND DEGREES)
   CD    Cent   Atom    N1       Length/X        N2       Alpha/Y        N3        Beta/Z          J
 ---------------------------------------------------------------------------------------------------
      1      1  C 
      2      2  C        1   1.300000(     1)
      3      3  C        2   1.300000(     2)      1  120.000(    43)
      4      4  C        3   1.300000(     3)      2  120.000(    44)      1    0.000(    84)      0
      5      5  C        4   1.300000(     4)      3  120.000(    45)      2    0.000(    85)      0
      6      6  C        1   1.300000(     5)      2  119.978(    46)      3    1.717(    86)      0
      7      7  F        1   1.400000(     6)      2  120.000(    47)      3 -180.000(    87)      0
      8      8  H        2   1.000000(     7)      1  120.000(    48)      6 -178.283(    88)      0
      9      9  H        3   1.000000(     8)      2  120.000(    49)      1  180.000(    89)      0
     10     10  H        4   1.000000(     9)      3  120.000(    50)      2  180.000(    90)      0
     11     11  H        5   1.000000(    10)      4  120.000(    51)      3  180.000(    91)      0
     12     12  H        6   1.001007(    11)      1  119.916(    52)      2 -177.772(    92)      0
     13     13  O        1   4.200000(    12)      2  120.000(    53)      3 -180.000(    93)      0
     14     14  C       13   1.200000(    13)      1  179.900(    54)      2  180.000(    94)      0
     15     15  H       14   1.000000(    14)     13  120.000(    55)      1  -90.045(    95)      0
     16     16  H       14   1.000000(    15)     13  120.000(    56)      1   90.045(    96)      0
     17     17  H        7   2.120000(    16)      1  100.000(    57)      2   90.000(    97)      0
     18     18  N       17   1.000000(    17)      7  179.900(    58)      1   90.000(    98)      0
     19     19  C       18   1.330000(    18)     17  119.500(    59)      7    0.000(    99)      0
     20     20  O       19   1.230000(    19)     18  123.200(    60)     17 -180.000(   100)      0
     21     21  C       18   1.450000(    20)     17  121.900(    61)     19 -180.000(   101)      0
     22     22  H       21   1.000000(    21)     18  110.700(    62)     17 -180.000(   102)      0
     23     23  H       21   1.000000(    22)     18  110.700(    63)     17  -60.000(   103)      0
     24     24  H       21   1.000000(    23)     18  110.700(    64)     17   60.000(   104)      0
     25     25  H       19   1.000000(    24)     18  113.467(    65)     17    0.000(   105)      0
     26     26  H        7   2.120000(    25)      1  100.000(    66)      2  -30.000(   106)      0
     27     27  N       26   1.000000(    26)      7  179.900(    67)      1  -30.000(   107)      0
     28     28  C       27   1.330000(    27)     26  119.500(    68)      7  120.000(   108)      0
     29     29  O       28   1.230000(    28)     27  123.200(    69)     26 -180.000(   109)      0
     30     30  C       27   1.450000(    29)     26  121.900(    70)     28 -180.000(   110)      0
     31     31  H       30   1.000000(    30)     27  110.700(    71)     26  180.000(   111)      0
     32     32  H       30   1.000000(    31)     27  110.700(    72)     26  -60.000(   112)      0
     33     33  H       30   1.000000(    32)     27  110.700(    73)     26   60.000(   113)      0
     34     34  H       28   1.000000(    33)     27  113.467(    74)     26    0.000(   114)      0
     35     35  H        7   2.120000(    34)      1  100.000(    75)      2 -150.000(   115)      0
     36     36  N       35   1.000000(    35)      7  179.900(    76)      1 -150.000(   116)      0
     37     37  C       36   1.330000(    36)     35  119.500(    77)      7   60.000(   117)      0
     38     38  O       37   1.230000(    37)     36  123.200(    78)     35 -180.000(   118)      0
     39     39  C       36   1.450000(    38)     35  121.900(    79)     37 -180.000(   119)      0
     40     40  H       39   1.000000(    39)     36  110.700(    80)     35  180.000(   120)      0
     41     41  H       39   1.000000(    40)     36  110.700(    81)     35  -60.000(   121)      0
     42     42  H       39   1.000000(    41)     36  110.700(    82)     35   60.000(   122)      0
     43     43  H       37   1.000000(    42)     36  113.467(    83)     35    0.000(   123)      0
 ---------------------------------------------------------------------------------------------------
                         Z-Matrix orientation:                         
 ---------------------------------------------------------------------
 Center     Atomic      Atomic             Coordinates (Angstroms)
 Number     Number       Type             X           Y           Z
 ---------------------------------------------------------------------
      1          6           0        0.000000    0.000000    0.000000
      2          6           0        0.000000    0.000000    1.300000
      3          6           0        1.125833    0.000000    1.950000
      4          6           0        2.251666    0.000000    1.300000
      5          6           0        2.251666    0.000000    0.000000
      6          6           0        1.125580   -0.033745   -0.649562
      7          9           0       -1.212436    0.000000   -0.700000
      8          1           0       -0.866025    0.000000    1.800000
      9          1           0        1.125833    0.000000    2.950000
     10          1           0        3.117691    0.000000    1.800000
     11          1           0        3.117691    0.000000   -0.500000
     12          1           0        1.125833   -0.000000   -1.650000
     13          8           0       -3.637307    0.000000   -2.100000
     14          6           0       -4.675488    0.000000   -2.701813
     15          1           0       -5.108404    0.866025   -2.951981
     16          1           0       -5.108404   -0.866025   -2.951981
     17          1           0       -1.531249    2.087792   -0.884067
     18          7           0       -1.680760    3.072599   -0.972403
     19          6           0       -1.199589    3.715582   -2.032566
     20          8           0       -1.343395    4.924232   -2.209721
     21          6           0       -2.411147    3.829308    0.025809
     22          1           0       -2.460643    4.795025   -0.229027
     23          1           0       -3.344400    3.482475    0.119330
     24          1           0       -1.962551    3.763826    0.917141
     25          1           0       -0.710188    3.121088   -2.670583
     26          1           0       -2.435290   -1.043896    0.681777
     27          7           0       -3.010713   -1.537186    1.334121
     28          6           0       -3.677547   -0.858264    2.263259
     29          8           0       -4.403726   -1.395039    3.098385
     30          6           0       -3.143252   -2.980718    1.300227
     31          1           0       -3.756373   -3.296485    2.024364
     32          1           0       -3.515872   -3.280948    0.422152
     33          1           0       -2.254441   -3.420416    1.429379
     34          1           0       -3.530959    0.129828    2.216495
     35          1           0       -0.627208   -1.043896   -2.449911
     36          7           0       -0.352343   -1.535412   -3.276265
     37          6           0        0.116788   -0.854333   -4.317873
     38          8           0        0.473992   -1.388863   -5.366483
     39          6           0       -0.449188   -2.978643   -3.377292
     40          1           0       -0.131045   -3.292503   -4.271874
     41          1           0        0.108505   -3.420390   -2.674555
     42          1           0       -1.395847   -3.278510   -3.259330
     43          1           0        0.150625    0.133376   -4.165278
 ---------------------------------------------------------------------
                    Distance matrix (angstroms):
                    1          2          3          4          5
     1  C    0.000000
     2  C    1.300000   0.000000
     3  C    2.251666   1.300000   0.000000
     4  C    2.600000   2.251666   1.300000   0.000000
     5  C    2.251666   2.600000   2.251666   1.300000   0.000000
     6  C    1.300000   2.251413   2.599781   2.251666   1.300438
     7  F    1.400000   2.338803   3.534119   4.000000   3.534119
     8  H    1.997498   1.000000   1.997498   3.157531   3.600000
     9  H    3.157531   1.997498   1.000000   1.997498   3.157531
    10  H    3.600000   3.157531   1.997498   1.000000   1.997498
    11  H    3.157531   3.600000   3.157531   1.997498   1.000000
    12  H    1.997498   3.157531   3.600000   3.157531   1.997498
    13  O    4.200000   4.978956   6.252200   6.800000   6.252200
    14  C    5.399999   6.154242   7.436040   7.999998   7.435406
    15  H    5.963219   6.702621   7.977790   8.544002   7.977144
    16  H    5.963219   6.702621   7.977790   8.544002   7.977144
    17  H    2.735905   3.387292   4.410317   4.841433   4.410317
    18  N    3.634747   4.174881   5.085102   5.483489   5.084329
    19  C    4.401805   5.133279   5.922328   6.068171   5.463335
    20  O    5.561982   6.194426   6.902784   7.034960   6.485013
    21  C    4.525251   4.701148   5.556648   6.166765   6.033746
    22  H    5.394393   5.602227   6.372066   6.894639   6.726854
    23  H    4.829791   4.970576   5.954995   6.696086   6.592255
    24  H    4.342712   4.261992   4.977078   5.663267   5.724261
    25  H    4.168641   5.100106   5.870430   5.854853   5.064167
    26  H    2.735905   2.720764   3.921697   4.841433   4.849958
    27  N    3.634173   3.380606   4.455700   5.482403   5.642292
    28  C    4.402648   3.897286   4.889499   6.067953   6.404258
    29  O    5.562277   4.957129   5.817297   7.033816   7.472641
    30  C    4.522754   4.331826   5.247092   6.163588   6.299239
    31  H    5.392143   5.049936   5.891373   6.891158   7.145726
    32  H    4.827441   4.888414   5.885946   6.693260   6.648859
    33  H    4.338764   4.098596   4.836997   5.658709   5.835012
    34  H    4.171017   3.650273   4.666218   5.856243   6.194228
    35  H    2.735905   3.942708   4.849958   4.841433   3.921697
    36  N    3.635320   4.839818   5.644143   5.484575   4.457832
    37  C    4.403130   5.683663   6.405802   6.070263   4.891996
    38  O    5.563520   6.826098   7.475611   7.037831   5.821358
    39  C    4.525504   5.563375   6.303415   6.167980   5.251002
    40  H    5.395058   6.473293   7.150667   6.896642   5.896337
    41  H    4.343281   5.244800   5.841279   5.664742   4.842051
    42  H    4.829104   5.786580   6.651663   6.696303   5.888651
    43  H    4.170134   5.468980   6.193985   5.856742   4.667088
                    6          7          8          9         10
     6  C    0.000000
     7  F    2.338803   0.000000
     8  H    3.157212   2.523886   0.000000
     9  H    3.599720   4.334743   2.300000   0.000000
    10  H    3.157531   5.000000   3.983717   2.300000   0.000000
    11  H    1.998003   4.334743   4.600000   3.983717   2.300000
    12  H    1.001007   2.523886   3.983717   4.600000   3.983717
    13  O    4.978956   2.800000   4.784349   6.941902   7.800000
    14  C    6.153476   3.999999   5.897315   8.099279   8.999998
    15  H    6.706212   4.582574   6.428771   8.628389   9.539390
    16  H    6.697491   4.582574   6.428771   8.628389   9.539390
    17  H    3.408028   2.120000   3.464912   5.110678   5.759839
    18  N    4.198707   3.119999   4.217923   5.718660   6.336577
    19  C    4.623479   3.947334   5.348399   6.636196   6.865349
    20  O    5.754257   5.152132   6.368187   7.547706   7.760620
    21  C    5.280885   4.077660   4.494303   5.977016   6.955531
    22  H    6.029500   4.977158   5.445367   6.779475   7.630663
    23  H    5.738965   4.164638   4.592888   6.334296   7.530665
    24  H    5.139325   4.164638   4.018482   5.276080   6.383940
    25  H    4.172235   3.725136   5.454502   6.686039   6.661829
    26  H    3.933531   2.120000   2.191514   4.349270   5.759839
    27  N    4.827448   3.119999   2.679491   4.699470   6.335403
    28  C    5.677533   3.948961   2.975883   4.927544   6.864873
    29  O    6.817144   5.153465   4.018366   5.704750   7.759102
    30  C    5.541593   4.075984   3.784206   5.461824   6.952256
    31  H    6.452040   4.976002   4.389905   5.963183   7.626921
    32  H    5.765065   4.162891   4.436752   6.220937   7.527765
    33  H    5.216903   4.161643   3.710028   5.043589   6.379374
    34  H    5.470320   3.728049   2.700407   4.715994   6.662948
    35  H    2.708123   2.120000   4.382750   5.772514   5.759839
    36  N    3.367318   3.119999   5.328211   6.580948   6.337752
    37  C    3.891983   3.947876   6.254933   7.387154   6.867582
    38  O    4.950784   5.152577   7.421797   8.456816   7.763798
    39  C    4.311940   4.077101   5.987522   7.168516   6.956960
    40  H    5.031874   4.976773   6.946109   8.035906   7.632989
    41  H    4.074850   4.164471   5.715804   6.661054   6.385602
    42  H    4.867955   4.163224   6.051955   7.460783   7.531101
    43  H    3.652223   3.726108   6.052761   7.183036   6.663769
                   11         12         13         14         15
    11  H    0.000000
    12  H    2.300000   0.000000
    13  O    6.941902   4.784349   0.000000
    14  C    8.098249   5.895900   1.200000   0.000000
    15  H    8.627332   6.427353   1.907878   1.000000   0.000000
    16  H    8.627332   6.427353   1.907878   1.000000   1.732051
    17  H    5.110678   3.464912   3.205129   4.189191   4.308714
    18  N    5.717444   4.216274   3.813189   4.626027   4.531715
    19  C    5.898577   4.399942   4.444386   5.131795   4.923833
    20  O    6.860940   5.537006   5.433427   5.965992   5.585274
    21  C    6.745971   5.475597   4.548201   5.218310   4.992341
    22  H    7.360944   6.154205   5.279900   5.832022   5.464628
    23  H    7.366806   5.936425   4.139910   4.675284   4.403461
    24  H    6.479471   5.504064   5.106304   5.884152   5.767473
    25  H    5.394931   3.762148   4.316802   5.046363   4.950636
    26  H    5.772514   4.382750   3.205129   4.190094   4.898728
    27  N    6.579079   5.327188   3.814282   4.628518   5.342884
    28  C    7.385627   6.254812   4.447051   5.136579   5.676201
    29  O    8.453770   7.420871   5.436611   5.971791   6.497377
    30  C    7.164141   5.984447   4.548661   5.220034   6.061397
    31  H    8.030691   6.942889   5.281228   5.835095   6.627103
    32  H    7.457824   6.050112   4.140122   4.676375   5.578379
    33  H    6.654439   5.710348   5.105691   5.884511   6.761287
    34  H    7.183367   6.054119   4.319756   5.051391   5.453757
    35  H    4.349270   2.191514   3.205129   4.188287   4.897039
    36  N    4.701731   2.680902   3.812096   4.623535   5.337807
    37  C    4.930666   2.977517   4.443205   5.129079   5.668150
    38  O    5.709706   4.020707   5.431541   5.962094   6.486717
    39  C    5.465688   3.786363   4.546195   5.214423   6.055631
    40  H    5.968408   4.392555   5.277451   5.827318   6.618881
    41  H    5.048065   3.712646   5.104928   5.881020   6.757696
    42  H    6.223710   4.438180   4.137247   4.670706   5.572676
    43  H    4.717578   2.701008   4.316433   5.044888   5.446674
                   16         17         18         19         20
    16  H    0.000000
    17  H    5.079109   0.000000
    18  N    5.583926   1.000000   0.000000
    19  C    6.092232   2.019591   1.330000   0.000000
    20  O    6.946461   3.136564   2.252403   1.230000   0.000000
    21  C    6.179691   2.152898   1.450000   2.391174   2.708605
    22  H    6.817082   2.936317   2.031644   2.451165   2.277737
    23  H    5.608397   2.497892   2.031644   3.047165   3.392221
    24  H    6.804559   2.497892   2.031644   3.047165   3.392221
    25  H    5.943111   2.221144   1.956573   1.000000   1.965877
    26  H    4.514574   3.616163   4.500128   5.616694   6.720978
    27  N    4.818862   4.499961   5.323434   6.496640   7.555706
    28  C    5.407970   4.815756   5.468852   6.746440   7.674182
    29  O    6.114193   6.020064   6.629151   7.919066   8.801977
    30  C    5.139555   5.749739   6.629206   7.728245   8.834447
    31  H    5.700801   6.511574   7.338529   8.494994   9.556680
    32  H    4.444410   5.870971   6.758696   7.768026   8.886584
    33  H    5.819479   6.017923   6.946719   8.001265   9.149110
    34  H    5.494834   4.176835   4.717224   6.028884   6.882088
    35  H    4.512740   3.616163   4.498726   4.811905   6.015744
    36  N    4.813871   4.498894   5.320361   5.462376   6.621685
    37  C    5.400781   4.812811   5.462980   5.276324   6.322045
    38  O    6.104616   6.016659   6.622352   6.322281   7.288568
    39  C    5.133453   5.749417   6.627050   6.869063   8.038549
    40  H    5.692453   6.510406   7.335029   7.434348   8.557862
    41  H    5.815314   6.019528   6.946776   7.283224   8.482736
    42  H    4.438200   5.870043   6.756315   7.103575   8.269789
    43  H    5.488924   4.173103   4.710356   4.382206   5.385963
                   21         22         23         24         25
    21  C    0.000000
    22  H    1.000000   0.000000
    23  H    1.000000   1.620237   0.000000
    24  H    1.000000   1.620237   1.620237   0.000000
    25  H    3.265787   3.439091   3.853996   3.853996   0.000000
    26  H    4.917215   5.909586   4.650900   4.836639   5.617952
    27  N    5.556116   6.545450   5.175332   5.419710   6.559695
    28  C    5.346334   6.296985   4.852776   5.110476   6.998804
    29  O    6.380040   7.291374   5.812666   6.109915   8.204793
    30  C    6.966820   7.954040   6.573268   6.857820   7.675883
    31  H    7.522020   8.498778   7.053594   7.368293   8.515105
    32  H    7.206472   8.170611   6.772370   7.230952   7.643490
    33  H    7.386005   8.383693   7.110144   7.208393   7.873099
    34  H    4.442886   5.374962   3.958933   4.165834   6.386542
    35  H    5.749761   6.510515   5.871301   6.019500   4.171652
    36  N    6.627412   7.335191   6.757342   6.946896   4.709342
    37  C    6.869827   7.434855   7.104682   7.283984   4.381944
    38  O    8.039288   8.558389   8.270684   8.483566   5.386077
    39  C    7.859935   8.624815   7.896497   8.135928   6.146079
    40  H    8.624914   9.337010   8.689572   8.948300   6.635789
    41  H    8.136260   8.948417   8.208404   8.294728   6.592512
    42  H    7.895824   8.688987   7.805326   8.207226   6.463096
    43  H    6.147178   6.636548   6.464483   6.593684   3.449861
                   26         27         28         29         30
    26  H    0.000000
    27  N    1.000000   0.000000
    28  C    2.019591   1.330000   0.000000
    29  O    3.136564   2.252403   1.230000   0.000000
    30  C    2.152898   1.450000   2.391174   2.708605   0.000000
    31  H    2.936317   2.031644   2.451165   2.277737   1.000000
    32  H    2.497892   2.031644   3.047165   3.392221   1.000000
    33  H    2.497892   2.031644   3.047165   3.392221   1.000000
    34  H    2.221144   1.956573   1.000000   1.965877   3.265787
    35  H    3.616163   4.499259   5.617206   6.720787   4.913786
    36  N    4.499595   5.321898   6.496294   7.554441   5.551790
    37  C    5.616542   6.495583   7.596598   8.702201   6.834649
    38  O    6.720445   7.554024   8.702286   9.769656   7.750064
    39  C    4.915678   5.553073   6.836236   7.751166   5.397886
    40  H    5.907998   6.542233   7.823756   8.727937   6.341838
    41  H    4.835657   5.417145   6.729092   7.601915   5.154234
    42  H    4.648254   5.171053   6.446917   7.281163   4.892000
    43  H    5.618441   6.559591   7.547473   8.708558   7.100631
                   31         32         33         34         35
    31  H    0.000000
    32  H    1.620237   0.000000
    33  H    1.620237   1.620237   0.000000
    34  H    3.439091   3.853996   3.853996   0.000000
    35  H    5.906350   4.647313   4.831628   5.620031   0.000000
    36  N    6.541060   5.170406   5.414269   6.561025   1.000000
    37  C    7.822369   6.446124   6.725951   7.548020   2.019591
    38  O    8.726949   7.280611   7.599691   8.709054   3.136564
    39  C    6.341639   4.892005   5.153464   7.102842   2.152898
    40  H    7.265372   5.787146   6.085183   8.085215   2.936317
    41  H    6.085431   4.769187   4.735587   7.054936   2.497892
    42  H    5.787039   4.248272   4.768785   6.794125   2.497892
    43  H    8.083332   6.793035   7.050814   7.367572   2.221144
                   36         37         38         39         40
    36  N    0.000000
    37  C    1.330000   0.000000
    38  O    2.252403   1.230000   0.000000
    39  C    1.450000   2.391174   2.708605   0.000000
    40  H    2.031644   2.451165   2.277737   1.000000   0.000000
    41  H    2.031644   3.047165   3.392221   1.000000   1.620237
    42  H    2.031644   3.047165   3.392221   1.000000   1.620237
    43  H    1.956573   1.000000   1.965877   3.265787   3.439091
                   41         42         43
    41  H    0.000000
    42  H    1.620237   0.000000
    43  H    3.853996   3.853996   0.000000
 Stoichiometry    C13H22FN3O4
 Framework group  C1[X(C13H22FN3O4)]
 Deg. of freedom   123
 Full point group                 C1      NOp   1
 Largest Abelian subgroup         C1      NOp   1
 Largest concise Abelian subgroup C1      NOp   1
                         Standard orientation:                         
 ---------------------------------------------------------------------
 Center     Atomic      Atomic             Coordinates (Angstroms)
 Number     Number       Type             X           Y           Z
 ---------------------------------------------------------------------
      1          6           0       -0.095176   -0.155971    1.438323
      2          6           0       -1.215814    0.026034    2.071604
      3          6           0       -1.250836   -0.058876    3.368355
      4          6           0       -0.165219   -0.325791    4.031826
      5          6           0        0.955419   -0.507796    3.398545
      6          6           0        0.983263   -0.455779    2.099446
      7          9           0       -0.057461   -0.064529    0.041822
      8          1           0       -2.050904    0.231354    1.561242
      9          1           0       -2.112865    0.081128    3.855494
     10          1           0       -0.192159   -0.391107    5.029327
     11          1           0        1.790509   -0.713116    3.908907
     12          1           0        1.852470   -0.562890    1.614655
     13          8           0        0.017970    0.118355   -2.751181
     14          6           0        0.052350    0.196316   -3.948152
     15          1           0        0.237482    1.075687   -4.386824
     16          1           0       -0.105462   -0.617817   -4.506975
     17          1           0        0.365836    2.000844   -0.180563
     18          7           0        0.567215    2.974727   -0.285439
     19          6           0        1.832924    3.379789   -0.338391
     20          8           0        2.157849    4.559209   -0.466040
     21          6           0       -0.484233    3.968473   -0.382528
     22          1           0       -0.096441    4.884753   -0.482766
     23          1           0       -1.068967    3.788274   -1.173487
     24          1           0       -1.056245    3.959144    0.437664
     25          1           0        2.493551    2.632733   -0.264379
     26          1           0       -2.025849   -0.700666   -0.422049
     27          7           0       -2.954344   -1.001737   -0.639429
     28          6           0       -3.931997   -0.103648   -0.720236
     29          8           0       -5.097006   -0.398090   -0.982835
     30          6           0       -3.272784   -2.397178   -0.871461
     31          1           0       -4.245606   -2.508735   -1.074372
     32          1           0       -2.749161   -2.755438   -1.644422
     33          1           0       -3.056469   -2.947887   -0.065280
     34          1           0       -3.627649    0.833002   -0.546859
     35          1           0        1.517383   -1.421629   -0.373564
     36          7           0        2.260653   -2.060847   -0.570922
     37          6           0        3.512292   -1.614057   -0.622675
     38          8           0        4.477055   -2.339314   -0.859604
     39          6           0        2.016797   -3.470970   -0.804561
     40          1           0        2.874250   -3.952800   -0.985155
     41          1           0        1.583763   -3.891640   -0.007367
     42          1           0        1.414040   -3.599732   -1.592028
     43          1           0        3.592104   -0.632253   -0.450365
 ---------------------------------------------------------------------
 Rotational constants (GHZ):           0.2081136           0.1792946           0.1648973
 Standard basis: 6-311++G(d,p) (5D, 7F)
 There are   637 symmetry adapted cartesian basis functions of A   symmetry.
 There are   616 symmetry adapted basis functions of A   symmetry.
   616 basis functions,   954 primitive gaussians,   637 cartesian basis functions
    81 alpha electrons       81 beta electrons
       nuclear repulsion energy      1700.9009915983 Hartrees.
 NAtoms=   43 NActive=   43 NUniq=   43 SFac= 1.00D+00 NAtFMM=   60 NAOKFM=F Big=F
 Integral buffers will be    131072 words long.
 Raffenetti 2 integral format.
 Two-electron integral symmetry is turned on.
 ------------------------------------------------------------------------------
 Polarizable Continuum Model (PCM)
 =================================
 Model                : PCM.
 Atomic radii         : UFF (Universal Force Field).
 Polarization charges : Total charges.
 Charge compensation  : None.
 Solution method      : On-the-fly selection.
 Cavity type          : Scaled VdW (van der Waals Surface) (Alpha=1.100).
 Cavity algorithm     : GePol (No added spheres)
                        Default sphere list used, NSphG=   43.
                        Lebedev-Laikov grids with approx.  5.0 points / Ang**2.
                        Smoothing algorithm: York/Karplus (Gamma=1.0000).
                        Polarization charges: spherical gaussians, with
                                              point-specific exponents (IZeta= 3).
                        Self-potential: point-specific (ISelfS= 7).
                        Self-field    : sphere-specific E.n sum rule (ISelfD= 2).
 1st derivatives      : Analytical E(r).r(x)/FMM algorithm (CHGder, D1EAlg=3).
                        Cavity 1st derivative terms included.
 Solvent              : Chloroform, Eps=   4.711300 Eps(inf)=   2.090627
 ------------------------------------------------------------------------------
 One-electron integrals computed using PRISM.
 NBasis=   616 RedAO= T EigKep=  3.11D-06  NBF=   616
 NBsUse=   614 1.00D-06 EigRej=  7.33D-07 NBFU=   614
 ExpMin= 3.60D-02 ExpMax= 1.14D+04 ExpMxC= 1.72D+03 IAcc=3 IRadAn=         5 AccDes= 0.00D+00
 Harris functional with IExCor= 1009 and IRadAn=       5 diagonalized for initial guess.
 HarFok:  IExCor= 1009 AccDes= 0.00D+00 IRadAn=         5 IDoV= 1 UseB2=F ITyADJ=14
 ICtDFT=  3500011 ScaDFX=  1.000000  1.000000  1.000000  1.000000
 FoFCou: FMM=F IPFlag=           0 FMFlag=      100000 FMFlg1=           0
         NFxFlg=           0 DoJE=T BraDBF=F KetDBF=T FulRan=T
         wScrn=  0.000000 ICntrl=       500 IOpCl=  0 I1Cent=   200000004 NGrid=           0
         NMat0=    1 NMatS0=      1 NMatT0=    0 NMatD0=    1 NMtDS0=    0 NMtDT0=    0
 Petite list used in FoFCou.
 Requested convergence on RMS density matrix=1.00D-08 within 128 cycles.
 Requested convergence on MAX density matrix=1.00D-06.
 Requested convergence on             energy=1.00D-06.
 No special actions if energy rises.
 Inv3:  Mode=1 IEnd=    42345147.
 Iteration    1 A*A^-1 deviation from unit magnitude is 5.88D-15 for   3753.
 Iteration    1 A*A^-1 deviation from orthogonality  is 2.79D-15 for   3734   2801.
 Iteration    1 A^-1*A deviation from unit magnitude is 5.88D-15 for   3753.
 Iteration    1 A^-1*A deviation from orthogonality  is 2.55D-15 for   3749   2777.
 Error on total polarization charges =  0.01623
 SCF Done:  E(RM062X) =  -1073.30488961     A.U. after   14 cycles
            NFock= 14  Conv=0.42D-08     -V/T= 1.9993

 **********************************************************************

            Population analysis using the SCF Density.

 **********************************************************************

 Orbital symmetries:
       Occupied  (A) (A) (A) (A) (A) (A) (A) (A) (A) (A) (A) (A)
                 (A) (A) (A) (A) (A) (A) (A) (A) (A) (A) (A) (A)
                 (A) (A) (A) (A) (A) (A) (A) (A) (A) (A) (A) (A)
                 (A) (A) (A) (A) (A) (A) (A) (A) (A) (A) (A) (A)
                 (A) (A) (A) (A) (A) (A) (A) (A) (A) (A) (A) (A)
                 (A) (A) (A) (A) (A) (A) (A) (A) (A) (A) (A) (A)
                 (A) (A) (A) (A) (A) (A) (A) (A) (A)
       Virtual   (A) (A) (A) (A) (A) (A) (A) (A) (A) (A) (A) (A)
                 (A) (A) (A) (A) (A) (A) (A) (A) (A) (A) (A) (A)
                 (A) (A) (A) (A) (A) (A) (A) (A) (A) (A) (A) (A)
                 (A) (A) (A) (A) (A) (A) (A) (A) (A) (A) (A) (A)
                 (A) (A) (A) (A) (A) (A) (A) (A) (A) (A) (A) (A)
                 (A) (A) (A) (A) (A) (A) (A) (A) (A) (A) (A) (A)
                 (A) (A) (A) (A) (A) (A) (A) (A) (A) (A) (A) (A)
                 (A) (A) (A) (A) (A) (A) (A) (A) (A) (A) (A) (A)
                 (A) (A) (A) (A) (A) (A) (A) (A) (A) (A) (A) (A)
                 (A) (A) (A) (A) (A) (A) (A) (A) (A) (A) (A) (A)
                 (A) (A) (A) (A) (A) (A) (A) (A) (A) (A) (A) (A)
                 (A) (A) (A) (A) (A) (A) (A) (A) (A) (A) (A) (A)
                 (A) (A) (A) (A) (A) (A) (A) (A) (A) (A) (A) (A)
                 (A) (A) (A) (A) (A) (A) (A) (A) (A) (A) (A) (A)
                 (A) (A) (A) (A) (A) (A) (A) (A) (A) (A) (A) (A)
                 (A) (A) (A) (A) (A) (A) (A) (A) (A) (A) (A) (A)
                 (A) (A) (A) (A) (A) (A) (A) (A) (A) (A) (A) (A)
                 (A) (A) (A) (A) (A) (A) (A) (A) (A) (A) (A) (A)
                 (A) (A) (A) (A) (A) (A) (A) (A) (A) (A) (A) (A)
                 (A) (A) (A) (A) (A) (A) (A) (A) (A) (A) (A) (A)
                 (A) (A) (A) (A) (A) (A) (A) (A) (A) (A) (A) (A)
                 (A) (A) (A) (A) (A) (A) (A) (A) (A) (A) (A) (A)
                 (A) (A) (A) (A) (A) (A) (A) (A) (A) (A) (A) (A)
                 (A) (A) (A) (A) (A) (A) (A) (A) (A) (A) (A) (A)
                 (A) (A) (A) (A) (A) (A) (A) (A) (A) (A) (A) (A)
                 (A) (A) (A) (A) (A) (A) (A) (A) (A) (A) (A) (A)
                 (A) (A) (A) (A) (A) (A) (A) (A) (A) (A) (A) (A)
                 (A) (A) (A) (A) (A) (A) (A) (A) (A) (A) (A) (A)
                 (A) (A) (A) (A) (A) (A) (A) (A) (A) (A) (A) (A)
                 (A) (A) (A) (A) (A) (A) (A) (A) (A) (A) (A) (A)
                 (A) (A) (A) (A) (A) (A) (A) (A) (A) (A) (A) (A)
                 (A) (A) (A) (A) (A) (A) (A) (A) (A) (A) (A) (A)
                 (A) (A) (A) (A) (A) (A) (A) (A) (A) (A) (A) (A)
                 (A) (A) (A) (A) (A) (A) (A) (A) (A) (A) (A) (A)
                 (A) (A) (A) (A) (A) (A) (A) (A) (A) (A) (A) (A)
                 (A) (A) (A) (A) (A) (A) (A) (A) (A) (A) (A) (A)
                 (A) (A) (A) (A) (A) (A) (A) (A) (A) (A) (A) (A)
                 (A) (A) (A) (A) (A) (A) (A) (A) (A) (A) (A) (A)
                 (A) (A) (A) (A) (A) (A) (A) (A) (A) (A) (A) (A)
                 (A) (A) (A) (A) (A) (A) (A) (A) (A) (A) (A) (A)
                 (A) (A) (A) (A) (A) (A) (A) (A) (A) (A) (A) (A)
                 (A) (A) (A) (A) (A) (A) (A) (A) (A) (A) (A) (A)
                 (A) (A) (A) (A) (A) (A) (A) (A) (A) (A) (A) (A)
                 (A) (A) (A) (A) (A) (A) (A) (A) (A) (A) (A) (A)
                 (A) (A) (A) (A) (A)
 The electronic state is 1-A.
 Alpha  occ. eigenvalues --  -25.28510 -19.64509 -19.59455 -19.59394 -19.59178
 Alpha  occ. eigenvalues --  -14.77996 -14.77945 -14.77706 -10.63605 -10.63550
 Alpha  occ. eigenvalues --  -10.63303 -10.63158 -10.62196 -10.54090 -10.54055
 Alpha  occ. eigenvalues --  -10.54027 -10.54022 -10.53911 -10.53477 -10.53467
 Alpha  occ. eigenvalues --  -10.52663  -1.39145  -1.19677  -1.16513  -1.16452
 Alpha  occ. eigenvalues --   -1.16231  -1.04657  -1.04417  -1.04366  -1.04099
 Alpha  occ. eigenvalues --   -0.90820  -0.90020  -0.83895  -0.83857  -0.83646
 Alpha  occ. eigenvalues --   -0.75601  -0.75580  -0.74088  -0.70111  -0.70032
 Alpha  occ. eigenvalues --   -0.69804  -0.68303  -0.65502  -0.65408  -0.65172
 Alpha  occ. eigenvalues --   -0.61128  -0.61066  -0.60631  -0.59667  -0.55495
 Alpha  occ. eigenvalues --   -0.55126  -0.54870  -0.54689  -0.54636  -0.54427
 Alpha  occ. eigenvalues --   -0.54398  -0.54256  -0.53818  -0.52715  -0.49925
 Alpha  occ. eigenvalues --   -0.49834  -0.49729  -0.49393  -0.48096  -0.47868
 Alpha  occ. eigenvalues --   -0.47722  -0.47546  -0.46610  -0.46552  -0.46337
 Alpha  occ. eigenvalues --   -0.45754  -0.43511  -0.35663  -0.35289  -0.34607
 Alpha  occ. eigenvalues --   -0.34555  -0.34520  -0.34316  -0.32869  -0.32806
 Alpha  occ. eigenvalues --   -0.32589
 Alpha virt. eigenvalues --   -0.01236  -0.01193  -0.00246  -0.00060   0.00270
 Alpha virt. eigenvalues --    0.01057   0.01544   0.01631   0.01797   0.02150
 Alpha virt. eigenvalues --    0.02191   0.02421   0.02940   0.03255   0.04025
 Alpha virt. eigenvalues --    0.04125   0.04443   0.04754   0.04863   0.05073
 Alpha virt. eigenvalues --    0.05490   0.05818   0.05858   0.06209   0.06498
 Alpha virt. eigenvalues --    0.07086   0.07285   0.07465   0.07746   0.08122
 Alpha virt. eigenvalues --    0.08267   0.08716   0.08893   0.09212   0.10043
 Alpha virt. eigenvalues --    0.10492   0.11095   0.11552   0.11820   0.11951
 Alpha virt. eigenvalues --    0.12094   0.12489   0.12612   0.13000   0.13187
 Alpha virt. eigenvalues --    0.13460   0.13650   0.13973   0.14156   0.14510
 Alpha virt. eigenvalues --    0.14809   0.14938   0.15175   0.15393   0.15699
 Alpha virt. eigenvalues --    0.15842   0.16026   0.16139   0.16678   0.16880
 Alpha virt. eigenvalues --    0.17020   0.17330   0.17755   0.17847   0.18141
 Alpha virt. eigenvalues --    0.18465   0.18682   0.18932   0.19451   0.19605
 Alpha virt. eigenvalues --    0.20053   0.20390   0.20850   0.21342   0.21442
 Alpha virt. eigenvalues --    0.21637   0.22107   0.22470   0.22820   0.23240
 Alpha virt. eigenvalues --    0.23685   0.24277   0.24476   0.25039   0.25259
 Alpha virt. eigenvalues --    0.25582   0.26048   0.26173   0.26571   0.27017
 Alpha virt. eigenvalues --    0.27090   0.27522   0.27815   0.28206   0.28438
 Alpha virt. eigenvalues --    0.28993   0.29327   0.29586   0.29762   0.30237
 Alpha virt. eigenvalues --    0.30502   0.30734   0.31241   0.31538   0.32093
 Alpha virt. eigenvalues --    0.32245   0.32761   0.33456   0.33611   0.34095
 Alpha virt. eigenvalues --    0.34293   0.34789   0.35014   0.35289   0.36034
 Alpha virt. eigenvalues --    0.36232   0.36344   0.36540   0.36786   0.36953
 Alpha virt. eigenvalues --    0.37191   0.38033   0.38239   0.39039   0.39141
 Alpha virt. eigenvalues --    0.39434   0.40295   0.40799   0.41147   0.41776
 Alpha virt. eigenvalues --    0.41970   0.42749   0.43553   0.44006   0.44205
 Alpha virt. eigenvalues --    0.44996   0.45328   0.45750   0.46560   0.46727
 Alpha virt. eigenvalues --    0.48355   0.48843   0.49530   0.49649   0.50420
 Alpha virt. eigenvalues --    0.50665   0.51732   0.52486   0.53930   0.55535
 Alpha virt. eigenvalues --    0.56540   0.57073   0.58369   0.58900   0.59184
 Alpha virt. eigenvalues --    0.59576   0.60023   0.60532   0.61105   0.61483
 Alpha virt. eigenvalues --    0.62174   0.62732   0.63038   0.63366   0.63911
 Alpha virt. eigenvalues --    0.64466   0.64747   0.64837   0.65784   0.66221
 Alpha virt. eigenvalues --    0.66441   0.67243   0.67849   0.69209   0.69480
 Alpha virt. eigenvalues --    0.69990   0.71408   0.71957   0.72072   0.73106
 Alpha virt. eigenvalues --    0.73858   0.74273   0.74709   0.74829   0.75199
 Alpha virt. eigenvalues --    0.75523   0.76112   0.76903   0.77919   0.78329
 Alpha virt. eigenvalues --    0.79198   0.79431   0.80132   0.80564   0.80871
 Alpha virt. eigenvalues --    0.81487   0.82011   0.82424   0.83007   0.84023
 Alpha virt. eigenvalues --    0.84652   0.85095   0.87752   0.88147   0.88191
 Alpha virt. eigenvalues --    0.88285   0.89846   0.90008   0.92153   0.92920
 Alpha virt. eigenvalues --    0.93826   0.95388   0.95781   0.96355   0.97748
 Alpha virt. eigenvalues --    0.98943   0.99779   1.00165   1.00945   1.01251
 Alpha virt. eigenvalues --    1.01679   1.02145   1.02698   1.03670   1.03912
 Alpha virt. eigenvalues --    1.06133   1.07587   1.09134   1.09446   1.10098
 Alpha virt. eigenvalues --    1.10770   1.11102   1.11973   1.12990   1.13947
 Alpha virt. eigenvalues --    1.14980   1.15532   1.16315   1.17033   1.17573
 Alpha virt. eigenvalues --    1.18816   1.19081   1.19860   1.21262   1.21416
 Alpha virt. eigenvalues --    1.22272   1.22509   1.22975   1.23211   1.24161
 Alpha virt. eigenvalues --    1.25146   1.26567   1.27371   1.27963   1.28383
 Alpha virt. eigenvalues --    1.28970   1.30004   1.30859   1.32936   1.34888
 Alpha virt. eigenvalues --    1.35607   1.36463   1.37307   1.37716   1.39053
 Alpha virt. eigenvalues --    1.40133   1.41777   1.46988   1.50214   1.52694
 Alpha virt. eigenvalues --    1.54770   1.55620   1.56073   1.56716   1.57343
 Alpha virt. eigenvalues --    1.57564   1.57921   1.58571   1.58726   1.58880
 Alpha virt. eigenvalues --    1.61736   1.62612   1.62962   1.63631   1.63657
 Alpha virt. eigenvalues --    1.64128   1.64383   1.65351   1.65694   1.66631
 Alpha virt. eigenvalues --    1.67188   1.67910   1.68272   1.68942   1.69330
 Alpha virt. eigenvalues --    1.70827   1.71968   1.72096   1.72629   1.73182
 Alpha virt. eigenvalues --    1.74024   1.74943   1.75168   1.75604   1.76460
 Alpha virt. eigenvalues --    1.76895   1.77331   1.77793   1.78808   1.81776
 Alpha virt. eigenvalues --    1.82212   1.82710   1.83167   1.83592   1.84281
 Alpha virt. eigenvalues --    1.84752   1.85423   1.85579   1.85764   1.86042
 Alpha virt. eigenvalues --    1.87246   1.88337   1.90834   1.91476   1.92231
 Alpha virt. eigenvalues --    1.92422   1.93087   1.94738   1.97163   1.97972
 Alpha virt. eigenvalues --    1.99596   2.00308   2.01409   2.03690   2.04371
 Alpha virt. eigenvalues --    2.05172   2.05235   2.05354   2.06537   2.07932
 Alpha virt. eigenvalues --    2.09640   2.13567   2.14007   2.14138   2.14439
 Alpha virt. eigenvalues --    2.15876   2.16236   2.17028   2.17871   2.18989
 Alpha virt. eigenvalues --    2.20216   2.21649   2.22011   2.26649   2.26957
 Alpha virt. eigenvalues --    2.27357   2.32178   2.39339   2.40938   2.41231
 Alpha virt. eigenvalues --    2.41603   2.41924   2.42043   2.42239   2.43009
 Alpha virt. eigenvalues --    2.46192   2.49351   2.50745   2.53845   2.55356
 Alpha virt. eigenvalues --    2.56225   2.56507   2.56815   2.57291   2.57823
 Alpha virt. eigenvalues --    2.58789   2.60620   2.61184   2.62013   2.62734
 Alpha virt. eigenvalues --    2.63001   2.63853   2.65423   2.65993   2.67090
 Alpha virt. eigenvalues --    2.68146   2.68729   2.69436   2.70466   2.70752
 Alpha virt. eigenvalues --    2.71688   2.72238   2.74113   2.74594   2.75143
 Alpha virt. eigenvalues --    2.75805   2.77320   2.77686   2.78852   2.80031
 Alpha virt. eigenvalues --    2.80360   2.80823   2.81426   2.81925   2.84204
 Alpha virt. eigenvalues --    2.84470   2.84849   2.85897   2.86283   2.88666
 Alpha virt. eigenvalues --    2.89639   2.89850   2.89999   2.91376   2.91554
 Alpha virt. eigenvalues --    2.94505   2.94869   2.94988   2.95321   2.95701
 Alpha virt. eigenvalues --    2.97084   2.97950   2.99237   3.00334   3.00816
 Alpha virt. eigenvalues --    3.00942   3.01450   3.02848   3.03543   3.04527
 Alpha virt. eigenvalues --    3.05257   3.07011   3.07904   3.08216   3.09653
 Alpha virt. eigenvalues --    3.11391   3.24735   3.26768   3.27882   3.28397
 Alpha virt. eigenvalues --    3.31032   3.36455   3.40186   3.42169   3.42236
 Alpha virt. eigenvalues --    3.42286   3.44033   3.44792   3.45544   3.45815
 Alpha virt. eigenvalues --    3.56006   3.60148   3.61758   3.63491   3.63768
 Alpha virt. eigenvalues --    3.64504   3.65231   3.71436   3.71704   3.72270
 Alpha virt. eigenvalues --    3.76594   3.76867   3.86882   3.87324   3.88011
 Alpha virt. eigenvalues --    3.88364   3.91978   3.95997   3.97371   3.97702
 Alpha virt. eigenvalues --    3.99205   4.00578   4.02056   4.05686   4.06113
 Alpha virt. eigenvalues --    4.06638   4.09351   4.10689   4.10818   4.11156
 Alpha virt. eigenvalues --    4.11346   4.11559   4.11695   4.13482   4.16250
 Alpha virt. eigenvalues --    4.19314   4.25815   4.26971   4.35808   4.92100
 Alpha virt. eigenvalues --    4.94654   4.98253   4.98538   5.03018   5.06551
 Alpha virt. eigenvalues --    5.06676   5.07168   5.16404   5.18452   5.20187
 Alpha virt. eigenvalues --    5.20288   5.25901   5.34024   5.34727   5.35143
 Alpha virt. eigenvalues --    5.87270   5.87366   5.88104   5.88872   6.63637
 Alpha virt. eigenvalues --    6.68523   6.93233  23.75014  24.09575  24.09768
 Alpha virt. eigenvalues --   24.10102  24.18391  24.26278  24.27974  24.28026
 Alpha virt. eigenvalues --   24.28065  24.31023  24.52928  24.56051  24.72056
 Alpha virt. eigenvalues --   35.71208  35.71326  35.73669  50.07880  50.12202
 Alpha virt. eigenvalues --   50.12769  50.13046  66.97842
          Condensed to atoms (all electrons):
               1          2          3          4          5          6
     1  C    8.477058  -0.207160  -1.318347   0.448921  -1.746316   0.309605
     2  C   -0.207160   9.372813  -2.446431  -1.014879   2.232018  -2.250665
     3  C   -1.318347  -2.446431   9.009477   0.535432  -1.703593   1.922326
     4  C    0.448921  -1.014879   0.535432   6.557482   0.542161  -1.040141
     5  C   -1.746316   2.232018  -1.703593   0.542161   9.832943  -3.022791
     6  C    0.309605  -2.250665   1.922326  -1.040141  -3.022791   9.671295
     7  F    0.278679  -0.163830   0.040845   0.015523   0.070766  -0.165745
     8  H   -0.177609   0.481134  -0.247732   0.034511   0.001478  -0.111796
     9  H    0.020291  -0.061688   0.459262  -0.090746  -0.018635   0.060763
    10  H   -0.002061  -0.024104  -0.047510   0.500104  -0.049474  -0.031537
    11  H    0.021715   0.054020  -0.018502  -0.097630   0.455083  -0.050082
    12  H   -0.139036  -0.112161   0.016976   0.055070  -0.260226   0.478544
    13  O   -0.019703  -0.006438  -0.001680   0.000375  -0.001262  -0.004955
    14  C    0.005639  -0.000059   0.000328   0.000117   0.000610   0.000886
    15  H    0.000855  -0.000495  -0.000203   0.000075  -0.000249  -0.000720
    16  H   -0.002138   0.000784   0.000186  -0.000064   0.000347   0.000867
    17  H    0.027998  -0.010452  -0.024919   0.017329   0.026857  -0.041292
    18  N   -0.085697   0.028174   0.020407  -0.002464   0.037566   0.020486
    19  C    0.045498  -0.013236   0.003329  -0.001345  -0.003959   0.002997
    20  O    0.005163  -0.001498  -0.000253   0.000152  -0.002034  -0.001025
    21  C    0.016774   0.007091  -0.027782  -0.001914   0.010003  -0.012518
    22  H    0.007802  -0.000605  -0.002612  -0.000203  -0.000374  -0.001891
    23  H    0.001886  -0.004453   0.000379   0.000375  -0.000581   0.000779
    24  H   -0.000736   0.001864   0.006339   0.001725  -0.000612   0.003195
    25  H    0.101780  -0.026004   0.001217   0.008690  -0.053214  -0.015088
    26  H   -0.073230   0.041519  -0.093453  -0.025600   0.073964   0.048710
    27  N   -0.046336  -0.055825   0.013626   0.012058  -0.003578  -0.008449
    28  C    0.038604   0.012349  -0.002316  -0.002884   0.006506  -0.017401
    29  O    0.003846   0.008296  -0.003610   0.000033   0.000039  -0.000317
    30  C    0.002458  -0.005822   0.028970   0.007791  -0.010618  -0.006068
    31  H    0.004019   0.001134  -0.003611  -0.000235   0.000144  -0.001033
    32  H   -0.010060  -0.007172   0.002037   0.000472   0.002418  -0.000139
    33  H    0.011849   0.019916   0.001758  -0.000847  -0.003236   0.002103
    34  H    0.052937   0.043280  -0.051298  -0.006355   0.002644  -0.009370
    35  H   -0.028056   0.008733   0.093617  -0.030496  -0.166699   0.027353
    36  N   -0.038076  -0.005034  -0.007533   0.017087   0.021170  -0.055380
    37  C    0.043224  -0.015766   0.003988  -0.002457  -0.004966   0.014418
    38  O    0.003613  -0.000291  -0.000105  -0.000392  -0.004551   0.008435
    39  C   -0.007723   0.000524  -0.013796   0.009051   0.047506  -0.000075
    40  H    0.003493  -0.000853   0.000198  -0.000566  -0.003900   0.002079
    41  H    0.011208   0.001512  -0.002796  -0.001155   0.000857   0.019853
    42  H   -0.010156   0.000149   0.002238   0.001019   0.002693  -0.007129
    43  H    0.016956   0.000903  -0.003951  -0.016475  -0.026214   0.051458
               7          8          9         10         11         12
     1  C    0.278679  -0.177609   0.020291  -0.002061   0.021715  -0.139036
     2  C   -0.163830   0.481134  -0.061688  -0.024104   0.054020  -0.112161
     3  C    0.040845  -0.247732   0.459262  -0.047510  -0.018502   0.016976
     4  C    0.015523   0.034511  -0.090746   0.500104  -0.097630   0.055070
     5  C    0.070766   0.001478  -0.018635  -0.049474   0.455083  -0.260226
     6  C   -0.165745  -0.111796   0.060763  -0.031537  -0.050082   0.478544
     7  F    9.045414  -0.021650  -0.000659   0.000916   0.000244  -0.023594
     8  H   -0.021650   1.203123  -0.095527   0.016894  -0.008792  -0.000278
     9  H   -0.000659  -0.095527   0.495256  -0.022737   0.005615  -0.006509
    10  H    0.000916   0.016894  -0.022737   0.487301  -0.022170   0.013979
    11  H    0.000244  -0.008792   0.005615  -0.022170   0.489193  -0.080569
    12  H   -0.023594  -0.000278  -0.006509   0.013979  -0.080569   1.057506
    13  O    0.005804  -0.001033  -0.000040   0.000016  -0.000027  -0.000343
    14  C    0.001651   0.001509  -0.000003   0.000011   0.000020   0.000169
    15  H   -0.000247  -0.000250   0.000001   0.000000  -0.000001   0.000170
    16  H   -0.000536  -0.000285   0.000004  -0.000001   0.000008  -0.000599
    17  H    0.063799  -0.066612   0.001549  -0.002317   0.003836  -0.042016
    18  N   -0.036242   0.000115   0.000591   0.000111   0.000761   0.001879
    19  C   -0.006904   0.013598  -0.000169   0.000310  -0.000286  -0.000459
    20  O   -0.000116   0.000537  -0.000025  -0.000007  -0.000003  -0.000995
    21  C   -0.005987   0.027758  -0.001387   0.000385  -0.000384   0.004837
    22  H   -0.000592   0.003700  -0.000053   0.000012  -0.000024  -0.000423
    23  H    0.000197   0.008322  -0.000402   0.000073  -0.000083   0.000227
    24  H    0.000702  -0.021908   0.000964  -0.000179   0.000174   0.001228
    25  H   -0.006735   0.002796   0.000116  -0.000059  -0.001632   0.005871
    26  H    0.006271  -0.106585   0.009900  -0.000612  -0.002071   0.076235
    27  N   -0.010792   0.133679  -0.007266   0.000718  -0.000335  -0.007589
    28  C    0.002163  -0.040472   0.001888  -0.000593   0.000740  -0.008082
    29  O    0.000043  -0.018578   0.000720  -0.000012   0.000001   0.000063
    30  C    0.006196   0.026689  -0.002120   0.000100   0.000248  -0.008010
    31  H   -0.000447   0.000526  -0.000395   0.000036   0.000005  -0.000086
    32  H    0.000444   0.015208  -0.000526  -0.000001   0.000044  -0.001719
    33  H    0.000125  -0.032533   0.002019  -0.000147   0.000038   0.000319
    34  H   -0.003567  -0.082419   0.003011  -0.000261   0.000293  -0.001138
    35  H    0.006097   0.063188  -0.000913  -0.001406   0.003573  -0.082188
    36  N   -0.013515  -0.005211  -0.000628   0.000709  -0.005069   0.103489
    37  C    0.002256  -0.006672   0.000600  -0.000424   0.001292  -0.021838
    38  O    0.000088   0.000053  -0.000003  -0.000016   0.000644  -0.017433
    39  C    0.006240  -0.005491   0.000103   0.000193  -0.000289   0.013580
    40  H   -0.000351  -0.000121   0.000013   0.000042  -0.000423   0.001772
    41  H   -0.000212   0.000439   0.000023  -0.000106   0.001753  -0.029207
    42  H    0.000539  -0.001564   0.000048   0.000001  -0.000484   0.014650
    43  H   -0.001149  -0.001113   0.000050  -0.000132   0.003984  -0.075724
              13         14         15         16         17         18
     1  C   -0.019703   0.005639   0.000855  -0.002138   0.027998  -0.085697
     2  C   -0.006438  -0.000059  -0.000495   0.000784  -0.010452   0.028174
     3  C   -0.001680   0.000328  -0.000203   0.000186  -0.024919   0.020407
     4  C    0.000375   0.000117   0.000075  -0.000064   0.017329  -0.002464
     5  C   -0.001262   0.000610  -0.000249   0.000347   0.026857   0.037566
     6  C   -0.004955   0.000886  -0.000720   0.000867  -0.041292   0.020486
     7  F    0.005804   0.001651  -0.000247  -0.000536   0.063799  -0.036242
     8  H   -0.001033   0.001509  -0.000250  -0.000285  -0.066612   0.000115
     9  H   -0.000040  -0.000003   0.000001   0.000004   0.001549   0.000591
    10  H    0.000016   0.000011   0.000000  -0.000001  -0.002317   0.000111
    11  H   -0.000027   0.000020  -0.000001   0.000008   0.003836   0.000761
    12  H   -0.000343   0.000169   0.000170  -0.000599  -0.042016   0.001879
    13  O    8.158938   0.228721  -0.092531  -0.091471   0.032505  -0.002714
    14  C    0.228721   4.846509   0.420494   0.413344  -0.009087   0.000791
    15  H   -0.092531   0.420494   0.677553  -0.129521   0.007633   0.000835
    16  H   -0.091471   0.413344  -0.129521   0.684040  -0.001651   0.001085
    17  H    0.032505  -0.009087   0.007633  -0.001651   1.167638   0.351928
    18  N   -0.002714   0.000791   0.000835   0.001085   0.351928   7.207273
    19  C   -0.003604   0.001387  -0.001234  -0.000091  -0.292423   0.169786
    20  O    0.000170  -0.000087  -0.000076  -0.000041   0.003911  -0.184617
    21  C   -0.001410   0.001376  -0.001358   0.000288  -0.127664   0.168517
    22  H    0.000058   0.000751  -0.000548   0.000009  -0.055906  -0.121841
    23  H   -0.001012   0.001024  -0.000758   0.000053  -0.013569  -0.043208
    24  H   -0.000009  -0.000977   0.000514  -0.000138   0.039399  -0.039350
    25  H   -0.001510   0.000295  -0.000554  -0.001066  -0.079577  -0.380733
    26  H    0.059424  -0.012573  -0.000148  -0.001140  -0.137300  -0.008137
    27  N   -0.008803   0.003776  -0.000398   0.000146   0.012695   0.002921
    28  C   -0.007465   0.000258   0.000343   0.000034   0.018937   0.003480
    29  O    0.000178  -0.000073   0.000063  -0.000065   0.000126  -0.000050
    30  C   -0.009440   0.001769  -0.000754   0.001462   0.014926   0.000676
    31  H   -0.000005   0.000315   0.000072  -0.000146   0.001340  -0.000042
    32  H   -0.000026  -0.000069   0.000044  -0.000830   0.000000   0.000184
    33  H   -0.000503  -0.000581  -0.000123   0.000435   0.000789  -0.000012
    34  H    0.000647  -0.003797   0.000506   0.000274   0.032433  -0.000997
    35  H    0.054001  -0.013499   0.001218   0.000324  -0.082072   0.000098
    36  N   -0.008388   0.004902  -0.000604  -0.000094  -0.001161   0.002417
    37  C   -0.006291   0.001055   0.000083  -0.000354   0.001343  -0.002000
    38  O    0.000170  -0.000167   0.000075  -0.000054   0.000936  -0.000012
    39  C   -0.008386   0.001901  -0.000865   0.001000   0.008023  -0.000262
    40  H    0.000066   0.000248   0.000092  -0.000155   0.001351  -0.000112
    41  H   -0.000567  -0.000547  -0.000159   0.000449   0.000065   0.000068
    42  H    0.000117   0.000307  -0.000044  -0.000911  -0.001279  -0.000067
    43  H    0.000262  -0.005143   0.000414   0.001383   0.049271   0.010254
              19         20         21         22         23         24
     1  C    0.045498   0.005163   0.016774   0.007802   0.001886  -0.000736
     2  C   -0.013236  -0.001498   0.007091  -0.000605  -0.004453   0.001864
     3  C    0.003329  -0.000253  -0.027782  -0.002612   0.000379   0.006339
     4  C   -0.001345   0.000152  -0.001914  -0.000203   0.000375   0.001725
     5  C   -0.003959  -0.002034   0.010003  -0.000374  -0.000581  -0.000612
     6  C    0.002997  -0.001025  -0.012518  -0.001891   0.000779   0.003195
     7  F   -0.006904  -0.000116  -0.005987  -0.000592   0.000197   0.000702
     8  H    0.013598   0.000537   0.027758   0.003700   0.008322  -0.021908
     9  H   -0.000169  -0.000025  -0.001387  -0.000053  -0.000402   0.000964
    10  H    0.000310  -0.000007   0.000385   0.000012   0.000073  -0.000179
    11  H   -0.000286  -0.000003  -0.000384  -0.000024  -0.000083   0.000174
    12  H   -0.000459  -0.000995   0.004837  -0.000423   0.000227   0.001228
    13  O   -0.003604   0.000170  -0.001410   0.000058  -0.001012  -0.000009
    14  C    0.001387  -0.000087   0.001376   0.000751   0.001024  -0.000977
    15  H   -0.001234  -0.000076  -0.001358  -0.000548  -0.000758   0.000514
    16  H   -0.000091  -0.000041   0.000288   0.000009   0.000053  -0.000138
    17  H   -0.292423   0.003911  -0.127664  -0.055906  -0.013569   0.039399
    18  N    0.169786  -0.184617   0.168517  -0.121841  -0.043208  -0.039350
    19  C    5.115766   0.536214  -0.025287   0.045116  -0.001976  -0.022263
    20  O    0.536214   8.175755  -0.044286   0.043554  -0.002491  -0.005752
    21  C   -0.025287  -0.044286   5.111415   0.454076   0.416578   0.395510
    22  H    0.045116   0.043554   0.454076   0.482995  -0.025166  -0.034127
    23  H   -0.001976  -0.002491   0.416578  -0.025166   0.560176  -0.070750
    24  H   -0.022263  -0.005752   0.395510  -0.034127  -0.070750   0.577777
    25  H    0.308024  -0.052477  -0.020941   0.032620  -0.002592  -0.008667
    26  H    0.019148  -0.000310   0.009168  -0.000572   0.008930   0.001448
    27  N   -0.002333   0.000025   0.002583   0.000358  -0.000066  -0.001043
    28  C   -0.001889   0.000030  -0.000231   0.000881  -0.003034  -0.000481
    29  O   -0.000020   0.000000   0.000484   0.000052   0.000049  -0.000029
    30  C   -0.001066   0.000005  -0.001135   0.000010  -0.000180  -0.000499
    31  H   -0.000061   0.000000  -0.000363  -0.000031  -0.000020  -0.000006
    32  H   -0.000026  -0.000001   0.000099   0.000016  -0.000024  -0.000044
    33  H   -0.000073  -0.000000  -0.000080  -0.000007  -0.000031   0.000084
    34  H   -0.004423  -0.000110  -0.016721  -0.003466  -0.004388   0.006595
    35  H    0.005939   0.000319   0.008359   0.001443  -0.001247  -0.001563
    36  N   -0.002434   0.000047  -0.000500  -0.000066  -0.000133   0.000275
    37  C   -0.008481  -0.000069   0.000020   0.000084   0.000089   0.000122
    38  O   -0.000238  -0.000001  -0.000048  -0.000004   0.000000   0.000003
    39  C   -0.000701  -0.000009  -0.000055  -0.000025  -0.000044   0.000106
    40  H    0.000011  -0.000003  -0.000031  -0.000002   0.000002   0.000000
    41  H    0.000050   0.000001  -0.000038  -0.000003   0.000010  -0.000004
    42  H    0.000015   0.000007   0.000040  -0.000002   0.000007   0.000013
    43  H    0.023022   0.001268  -0.003919  -0.001124  -0.000014   0.000431
              25         26         27         28         29         30
     1  C    0.101780  -0.073230  -0.046336   0.038604   0.003846   0.002458
     2  C   -0.026004   0.041519  -0.055825   0.012349   0.008296  -0.005822
     3  C    0.001217  -0.093453   0.013626  -0.002316  -0.003610   0.028970
     4  C    0.008690  -0.025600   0.012058  -0.002884   0.000033   0.007791
     5  C   -0.053214   0.073964  -0.003578   0.006506   0.000039  -0.010618
     6  C   -0.015088   0.048710  -0.008449  -0.017401  -0.000317  -0.006068
     7  F   -0.006735   0.006271  -0.010792   0.002163   0.000043   0.006196
     8  H    0.002796  -0.106585   0.133679  -0.040472  -0.018578   0.026689
     9  H    0.000116   0.009900  -0.007266   0.001888   0.000720  -0.002120
    10  H   -0.000059  -0.000612   0.000718  -0.000593  -0.000012   0.000100
    11  H   -0.001632  -0.002071  -0.000335   0.000740   0.000001   0.000248
    12  H    0.005871   0.076235  -0.007589  -0.008082   0.000063  -0.008010
    13  O   -0.001510   0.059424  -0.008803  -0.007465   0.000178  -0.009440
    14  C    0.000295  -0.012573   0.003776   0.000258  -0.000073   0.001769
    15  H   -0.000554  -0.000148  -0.000398   0.000343   0.000063  -0.000754
    16  H   -0.001066  -0.001140   0.000146   0.000034  -0.000065   0.001462
    17  H   -0.079577  -0.137300   0.012695   0.018937   0.000126   0.014926
    18  N   -0.380733  -0.008137   0.002921   0.003480  -0.000050   0.000676
    19  C    0.308024   0.019148  -0.002333  -0.001889  -0.000020  -0.001066
    20  O   -0.052477  -0.000310   0.000025   0.000030   0.000000   0.000005
    21  C   -0.020941   0.009168   0.002583  -0.000231   0.000484  -0.001135
    22  H    0.032620  -0.000572   0.000358   0.000881   0.000052   0.000010
    23  H   -0.002592   0.008930  -0.000066  -0.003034   0.000049  -0.000180
    24  H   -0.008667   0.001448  -0.001043  -0.000481  -0.000029  -0.000499
    25  H    1.066805   0.002711  -0.000372  -0.000527   0.000011  -0.000340
    26  H    0.002711   1.754105   0.182593  -0.354594   0.004901  -0.296710
    27  N   -0.000372   0.182593   7.284100   0.122380  -0.182679   0.213052
    28  C   -0.000527  -0.354594   0.122380   5.176804   0.526757  -0.013376
    29  O    0.000011   0.004901  -0.182679   0.526757   8.178715  -0.045457
    30  C   -0.000340  -0.296710   0.213052  -0.013376  -0.045457   5.169800
    31  H   -0.000009  -0.033147  -0.116116   0.038490   0.041224   0.449831
    32  H   -0.000135   0.002221  -0.034723  -0.014439  -0.004659   0.412692
    33  H   -0.000006   0.014940  -0.061269  -0.001047  -0.002405   0.402987
    34  H   -0.000195  -0.006397  -0.365598   0.371555  -0.034503  -0.034178
    35  H    0.021313  -0.204690   0.012363   0.021330  -0.000211   0.015243
    36  N    0.012128   0.005940   0.002057  -0.000006   0.000041   0.002378
    37  C    0.027430   0.019329  -0.000449  -0.001453   0.000002  -0.001737
    38  O    0.001391  -0.000116   0.000043   0.000004   0.000000  -0.000030
    39  C   -0.000530   0.017267   0.001361  -0.002315  -0.000017  -0.000618
    40  H   -0.000969  -0.000065   0.000163  -0.000207  -0.000004  -0.000377
    41  H    0.000091  -0.001870  -0.000456   0.000397   0.000015   0.001293
    42  H    0.000641   0.007197  -0.000751  -0.000122   0.000050  -0.000489
    43  H   -0.103286  -0.004019   0.000936   0.000063  -0.000009   0.000098
              31         32         33         34         35         36
     1  C    0.004019  -0.010060   0.011849   0.052937  -0.028056  -0.038076
     2  C    0.001134  -0.007172   0.019916   0.043280   0.008733  -0.005034
     3  C   -0.003611   0.002037   0.001758  -0.051298   0.093617  -0.007533
     4  C   -0.000235   0.000472  -0.000847  -0.006355  -0.030496   0.017087
     5  C    0.000144   0.002418  -0.003236   0.002644  -0.166699   0.021170
     6  C   -0.001033  -0.000139   0.002103  -0.009370   0.027353  -0.055380
     7  F   -0.000447   0.000444   0.000125  -0.003567   0.006097  -0.013515
     8  H    0.000526   0.015208  -0.032533  -0.082419   0.063188  -0.005211
     9  H   -0.000395  -0.000526   0.002019   0.003011  -0.000913  -0.000628
    10  H    0.000036  -0.000001  -0.000147  -0.000261  -0.001406   0.000709
    11  H    0.000005   0.000044   0.000038   0.000293   0.003573  -0.005069
    12  H   -0.000086  -0.001719   0.000319  -0.001138  -0.082188   0.103489
    13  O   -0.000005  -0.000026  -0.000503   0.000647   0.054001  -0.008388
    14  C    0.000315  -0.000069  -0.000581  -0.003797  -0.013499   0.004902
    15  H    0.000072   0.000044  -0.000123   0.000506   0.001218  -0.000604
    16  H   -0.000146  -0.000830   0.000435   0.000274   0.000324  -0.000094
    17  H    0.001340   0.000000   0.000789   0.032433  -0.082072  -0.001161
    18  N   -0.000042   0.000184  -0.000012  -0.000997   0.000098   0.002417
    19  C   -0.000061  -0.000026  -0.000073  -0.004423   0.005939  -0.002434
    20  O    0.000000  -0.000001  -0.000000  -0.000110   0.000319   0.000047
    21  C   -0.000363   0.000099  -0.000080  -0.016721   0.008359  -0.000500
    22  H   -0.000031   0.000016  -0.000007  -0.003466   0.001443  -0.000066
    23  H   -0.000020  -0.000024  -0.000031  -0.004388  -0.001247  -0.000133
    24  H   -0.000006  -0.000044   0.000084   0.006595  -0.001563   0.000275
    25  H   -0.000009  -0.000135  -0.000006  -0.000195   0.021313   0.012128
    26  H   -0.033147   0.002221   0.014940  -0.006397  -0.204690   0.005940
    27  N   -0.116116  -0.034723  -0.061269  -0.365598   0.012363   0.002057
    28  C    0.038490  -0.014439  -0.001047   0.371555   0.021330  -0.000006
    29  O    0.041224  -0.004659  -0.002405  -0.034503  -0.000211   0.000041
    30  C    0.449831   0.412692   0.402987  -0.034178   0.015243   0.002378
    31  H    0.478723  -0.030798  -0.028272   0.024689  -0.000678   0.000217
    32  H   -0.030798   0.567897  -0.072121  -0.007842   0.006194  -0.000755
    33  H   -0.028272  -0.072121   0.577697  -0.000292  -0.000877  -0.000382
    34  H    0.024689  -0.007842  -0.000292   0.951798  -0.001528   0.000858
    35  H   -0.000678   0.006194  -0.000877  -0.001528   1.691206   0.230533
    36  N    0.000217  -0.000755  -0.000382   0.000858   0.230533   7.278228
    37  C   -0.000147   0.000075   0.000360  -0.000224  -0.331896   0.160843
    38  O   -0.000005   0.000044   0.000019  -0.000003   0.002471  -0.192367
    39  C   -0.000290  -0.000559   0.001165  -0.000280  -0.291241   0.208353
    40  H   -0.000094   0.000253   0.000287  -0.000100  -0.037272  -0.118492
    41  H    0.000277   0.001807  -0.002480   0.000163   0.021502  -0.059660
    42  H    0.000260  -0.004665   0.001652   0.000318  -0.001818  -0.034456
    43  H   -0.000089   0.000569   0.000192  -0.000265  -0.034002  -0.413803
              37         38         39         40         41         42
     1  C    0.043224   0.003613  -0.007723   0.003493   0.011208  -0.010156
     2  C   -0.015766  -0.000291   0.000524  -0.000853   0.001512   0.000149
     3  C    0.003988  -0.000105  -0.013796   0.000198  -0.002796   0.002238
     4  C   -0.002457  -0.000392   0.009051  -0.000566  -0.001155   0.001019
     5  C   -0.004966  -0.004551   0.047506  -0.003900   0.000857   0.002693
     6  C    0.014418   0.008435  -0.000075   0.002079   0.019853  -0.007129
     7  F    0.002256   0.000088   0.006240  -0.000351  -0.000212   0.000539
     8  H   -0.006672   0.000053  -0.005491  -0.000121   0.000439  -0.001564
     9  H    0.000600  -0.000003   0.000103   0.000013   0.000023   0.000048
    10  H   -0.000424  -0.000016   0.000193   0.000042  -0.000106   0.000001
    11  H    0.001292   0.000644  -0.000289  -0.000423   0.001753  -0.000484
    12  H   -0.021838  -0.017433   0.013580   0.001772  -0.029207   0.014650
    13  O   -0.006291   0.000170  -0.008386   0.000066  -0.000567   0.000117
    14  C    0.001055  -0.000167   0.001901   0.000248  -0.000547   0.000307
    15  H    0.000083   0.000075  -0.000865   0.000092  -0.000159  -0.000044
    16  H   -0.000354  -0.000054   0.001000  -0.000155   0.000449  -0.000911
    17  H    0.001343   0.000936   0.008023   0.001351   0.000065  -0.001279
    18  N   -0.002000  -0.000012  -0.000262  -0.000112   0.000068  -0.000067
    19  C   -0.008481  -0.000238  -0.000701   0.000011   0.000050   0.000015
    20  O   -0.000069  -0.000001  -0.000009  -0.000003   0.000001   0.000007
    21  C    0.000020  -0.000048  -0.000055  -0.000031  -0.000038   0.000040
    22  H    0.000084  -0.000004  -0.000025  -0.000002  -0.000003  -0.000002
    23  H    0.000089   0.000000  -0.000044   0.000002   0.000010   0.000007
    24  H    0.000122   0.000003   0.000106   0.000000  -0.000004   0.000013
    25  H    0.027430   0.001391  -0.000530  -0.000969   0.000091   0.000641
    26  H    0.019329  -0.000116   0.017267  -0.000065  -0.001870   0.007197
    27  N   -0.000449   0.000043   0.001361   0.000163  -0.000456  -0.000751
    28  C   -0.001453   0.000004  -0.002315  -0.000207   0.000397  -0.000122
    29  O    0.000002   0.000000  -0.000017  -0.000004   0.000015   0.000050
    30  C   -0.001737  -0.000030  -0.000618  -0.000377   0.001293  -0.000489
    31  H   -0.000147  -0.000005  -0.000290  -0.000094   0.000277   0.000260
    32  H    0.000075   0.000044  -0.000559   0.000253   0.001807  -0.004665
    33  H    0.000360   0.000019   0.001165   0.000287  -0.002480   0.001652
    34  H   -0.000224  -0.000003  -0.000280  -0.000100   0.000163   0.000318
    35  H   -0.331896   0.002471  -0.291241  -0.037272   0.021502  -0.001818
    36  N    0.160843  -0.192367   0.208353  -0.118492  -0.059660  -0.034456
    37  C    5.176568   0.548278  -0.010436   0.036485  -0.004437  -0.013135
    38  O    0.548278   8.166730  -0.044676   0.041888  -0.002671  -0.004785
    39  C   -0.010436  -0.044676   5.171728   0.448870   0.401224   0.416564
    40  H    0.036485   0.041888   0.448870   0.480528  -0.028690  -0.030773
    41  H   -0.004437  -0.002671   0.401224  -0.028690   0.577012  -0.072109
    42  H   -0.013135  -0.004785   0.416564  -0.030773  -0.072109   0.567972
    43  H    0.283659  -0.039936  -0.037606   0.030988  -0.001621  -0.010384
              43
     1  C    0.016956
     2  C    0.000903
     3  C   -0.003951
     4  C   -0.016475
     5  C   -0.026214
     6  C    0.051458
     7  F   -0.001149
     8  H   -0.001113
     9  H    0.000050
    10  H   -0.000132
    11  H    0.003984
    12  H   -0.075724
    13  O    0.000262
    14  C   -0.005143
    15  H    0.000414
    16  H    0.001383
    17  H    0.049271
    18  N    0.010254
    19  C    0.023022
    20  O    0.001268
    21  C   -0.003919
    22  H   -0.001124
    23  H   -0.000014
    24  H    0.000431
    25  H   -0.103286
    26  H   -0.004019
    27  N    0.000936
    28  C    0.000063
    29  O   -0.000009
    30  C    0.000098
    31  H   -0.000089
    32  H    0.000569
    33  H    0.000192
    34  H   -0.000265
    35  H   -0.034002
    36  N   -0.413803
[...]
     4  C   -0.004580   0.000049  -0.000211  -0.000041  -0.000001   0.001397
     5  C   -0.012934  -0.001131  -0.004777  -0.000993  -0.000529   0.000269
     6  C   -0.099963  -0.001945  -0.048914  -0.003458   0.000902   0.010823
     7  F   -0.009774  -0.000093  -0.006264  -0.000560   0.000015   0.000471
     8  H    0.011947   0.000502   0.015457   0.002134   0.006202  -0.015945
     9  H   -0.000155  -0.000017  -0.000692  -0.000010  -0.000195   0.000371
    10  H    0.000193  -0.000004   0.000194   0.000006   0.000027  -0.000062
    11  H    0.000481  -0.000004  -0.000090  -0.000005  -0.000017   0.000047
    12  H   -0.005443  -0.000655   0.004868  -0.000153  -0.000128   0.000657
    13  O   -0.004443   0.000082  -0.002226   0.000026  -0.000752  -0.000018
    14  C    0.000247  -0.000070   0.001797   0.000564   0.000684  -0.000739
    15  H   -0.000941  -0.000056  -0.000975  -0.000405  -0.000670   0.000287
    16  H   -0.000201  -0.000026   0.000148  -0.000005  -0.000057  -0.000066
    17  H   -0.245561   0.006285  -0.132375  -0.045950  -0.007525   0.029423
    18  N    0.152718  -0.169318   0.131125  -0.117243  -0.047306  -0.042821
    19  C    5.148639   0.519433  -0.031829   0.040498  -0.005730  -0.017965
    20  O    0.519433   8.147943  -0.043756   0.040393  -0.001636  -0.004855
    21  C   -0.031829  -0.043756   5.319459   0.442773   0.402977   0.382543
    22  H    0.040498   0.040393   0.442773   0.473165  -0.024496  -0.029876
    23  H   -0.005730  -0.001636   0.402977  -0.024496   0.557644  -0.064468
    24  H   -0.017965  -0.004855   0.382543  -0.029876  -0.064468   0.571666
    25  H    0.307080  -0.050382  -0.027269   0.024718  -0.002006  -0.006282
    26  H    0.011316  -0.000216   0.006022  -0.000765   0.005754   0.000461
    27  N   -0.000913   0.000019   0.003087   0.000332   0.000122  -0.000907
    28  C   -0.000987   0.000030  -0.001203   0.000587  -0.002683   0.000191
    29  O   -0.000008   0.000000   0.000370   0.000028   0.000066  -0.000039
    30  C   -0.000565   0.000004  -0.000708   0.000047  -0.000082  -0.000351
    31  H   -0.000034   0.000000  -0.000250  -0.000016  -0.000016  -0.000005
    32  H    0.000038  -0.000000   0.000095   0.000011  -0.000018  -0.000022
    33  H   -0.000064  -0.000001  -0.000020  -0.000001  -0.000016   0.000049
    34  H   -0.003455  -0.000148  -0.013168  -0.002409  -0.002881   0.004550
    35  H   -0.003528   0.000115   0.002627   0.000685  -0.001193  -0.000123
    36  N   -0.002545   0.000046  -0.000220  -0.000039  -0.000003   0.000150
    37  C   -0.007097  -0.000083   0.000062   0.000112   0.000064  -0.000012
    38  O   -0.000175  -0.000001  -0.000022  -0.000002   0.000000   0.000002
    39  C   -0.000073   0.000002   0.000183  -0.000002  -0.000004   0.000024
    40  H    0.000076  -0.000002  -0.000005  -0.000001   0.000000  -0.000002
    41  H    0.000058   0.000001  -0.000033  -0.000001   0.000006  -0.000001
    42  H   -0.000027   0.000004   0.000043  -0.000000   0.000009   0.000005
    43  H    0.025482   0.001035  -0.001723  -0.000821   0.000023   0.000297
              25         26         27         28         29         30
     1  C    0.054810  -0.363797  -0.133915   0.092115   0.000714   0.086943
     2  C   -0.053753   0.744862   0.080759  -0.092873   0.007157  -0.135723
     3  C   -0.003660   0.081919   0.044048  -0.015613  -0.002164  -0.016745
     4  C    0.009015   0.013127   0.010641  -0.005523   0.000013  -0.000834
     5  C   -0.024134   0.011152  -0.005005   0.005436   0.000011  -0.002462
     6  C    0.034595  -0.512203  -0.066226   0.048018  -0.000405   0.084332
     7  F   -0.007160  -0.001253  -0.010777   0.000221  -0.000045   0.004814
     8  H    0.002372  -0.054350   0.096749  -0.037717  -0.012998   0.018088
     9  H    0.000147   0.003112  -0.004735   0.001129   0.000311  -0.001093
    10  H   -0.000037  -0.000721   0.000342  -0.000225  -0.000001   0.000126
    11  H   -0.001139   0.001065  -0.000187   0.000195  -0.000001  -0.000118
    12  H    0.000875   0.030351  -0.003544  -0.003451   0.000017  -0.003386
    13  O   -0.001594   0.051347  -0.007152  -0.006895   0.000090  -0.008172
    14  C    0.000095  -0.006846   0.002489  -0.001033  -0.000039   0.001482
    15  H   -0.000048  -0.000432  -0.000379   0.000204   0.000040  -0.000390
    16  H   -0.000910  -0.000294   0.000289   0.000130  -0.000028   0.000719
    17  H   -0.032286  -0.092295   0.004856   0.014768  -0.000030   0.010254
    18  N   -0.330741   0.005750   0.001690   0.000419  -0.000003  -0.000474
    19  C    0.307080   0.011316  -0.000913  -0.000987  -0.000008  -0.000565
    20  O   -0.050382  -0.000216   0.000019   0.000030   0.000000   0.000004
    21  C   -0.027269   0.006022   0.003087  -0.001203   0.000370  -0.000708
    22  H    0.024718  -0.000765   0.000332   0.000587   0.000028   0.000047
    23  H   -0.002006   0.005754   0.000122  -0.002683   0.000066  -0.000082
    24  H   -0.006282   0.000461  -0.000907   0.000191  -0.000039  -0.000351
    25  H    0.977768  -0.001951   0.000036  -0.000004   0.000004   0.000064
    26  H   -0.001951   1.409455   0.211343  -0.238332   0.012973  -0.254711
    27  N    0.000036   0.211343   7.219796   0.113176  -0.166407   0.151790
    28  C   -0.000004  -0.238332   0.113176   5.146322   0.503385  -0.039121
    29  O    0.000004   0.012973  -0.166407   0.503385   8.154993  -0.044525
    30  C    0.000064  -0.254711   0.151790  -0.039121  -0.044525   5.370199
    31  H    0.000002  -0.036095  -0.111917   0.033875   0.034717   0.449628
    32  H   -0.000056   0.015208  -0.039125  -0.016808  -0.003465   0.392011
    33  H    0.000007   0.011895  -0.059011  -0.000548  -0.002145   0.389898
    34  H   -0.000591   0.031572  -0.301470   0.382386  -0.034263  -0.033749
    35  H    0.015024  -0.158059   0.012134   0.012675  -0.000164   0.017003
    36  N    0.011974   0.010407  -0.000857  -0.000409   0.000015   0.000619
    37  C    0.023727   0.011353  -0.000558  -0.000469   0.000003  -0.001296
    38  O    0.001141  -0.000108   0.000015   0.000003   0.000000  -0.000012
    39  C    0.000462   0.018117   0.000203  -0.001676  -0.000007  -0.002950
    40  H   -0.000714   0.000144   0.000127  -0.000066  -0.000001  -0.000271
    41  H    0.000070   0.000381  -0.000286   0.000090   0.000008   0.000439
    42  H    0.000448   0.003144  -0.000422  -0.000092   0.000021   0.000225
    43  H   -0.092896  -0.001043   0.000286   0.000083  -0.000003  -0.000046
              31         32         33         34         35         36
     1  C    0.012194  -0.015712   0.022026   0.059029  -0.399307  -0.091878
     2  C   -0.011786   0.008018  -0.001375  -0.024695  -0.555741  -0.033717
     3  C   -0.003528   0.003361  -0.007515  -0.038881   0.004451  -0.005480
     4  C   -0.000571   0.000346  -0.001574  -0.006903   0.023901   0.012280
     5  C   -0.000009   0.000707  -0.000736   0.004313   0.041847   0.034725
     6  C    0.004832  -0.007367   0.014096   0.022471   0.815009   0.036202
     7  F   -0.000182   0.000441   0.000097  -0.004240  -0.006172  -0.011208
     8  H    0.000470   0.011151  -0.024394  -0.049719   0.024179  -0.002353
     9  H   -0.000112  -0.000298   0.001211   0.001951   0.001148  -0.000325
    10  H    0.000010  -0.000006  -0.000050  -0.000142  -0.000750   0.000366
    11  H   -0.000006   0.000026  -0.000008   0.000098  -0.001415  -0.003083
    12  H    0.000020  -0.000856   0.000201  -0.000495  -0.027262   0.066706
    13  O   -0.000124   0.000155  -0.000313   0.000226   0.050887  -0.007487
    14  C    0.000197   0.000018  -0.000446  -0.002986  -0.009488   0.003190
    15  H    0.000042   0.000047  -0.000069   0.000371   0.001280  -0.000597
    16  H   -0.000074  -0.001015   0.000276   0.000327  -0.000642   0.000229
    17  H    0.000904  -0.000566   0.000590   0.021787  -0.043011  -0.003626
    18  N   -0.000063   0.000134  -0.000047  -0.000660   0.001741   0.001491
    19  C   -0.000034   0.000038  -0.000064  -0.003455  -0.003528  -0.002545
    20  O    0.000000  -0.000000  -0.000001  -0.000148   0.000115   0.000046
    21  C   -0.000250   0.000095  -0.000020  -0.013168   0.002627  -0.000220
    22  H   -0.000016   0.000011  -0.000001  -0.002409   0.000685  -0.000039
    23  H   -0.000016  -0.000018  -0.000016  -0.002881  -0.001193  -0.000003
    24  H   -0.000005  -0.000022   0.000049   0.004550  -0.000123   0.000150
    25  H    0.000002  -0.000056   0.000007  -0.000591   0.015024   0.011974
    26  H   -0.036095   0.015208   0.011895   0.031572  -0.158059   0.010407
    27  N   -0.111917  -0.039125  -0.059011  -0.301470   0.012134  -0.000857
    28  C    0.033875  -0.016808  -0.000548   0.382386   0.012675  -0.000409
    29  O    0.034717  -0.003465  -0.002145  -0.034263  -0.000164   0.000015
    30  C    0.449628   0.392011   0.389898  -0.033749   0.017003   0.000619
    31  H    0.472333  -0.029776  -0.025975   0.015724   0.000030   0.000143
    32  H   -0.029776   0.564522  -0.064897  -0.005915   0.002420  -0.000404
    33  H   -0.025975  -0.064897   0.566592  -0.000515   0.000798  -0.000273
    34  H    0.015724  -0.005915  -0.000515   0.825549  -0.000855   0.000306
    35  H    0.000030   0.002420   0.000798  -0.000855   1.363946   0.243879
    36  N    0.000143  -0.000404  -0.000273   0.000306   0.243879   7.208901
    37  C   -0.000046  -0.000020   0.000115  -0.000003  -0.227064   0.155471
    38  O   -0.000001   0.000018   0.000010  -0.000001   0.011493  -0.176318
    39  C   -0.000261   0.000237   0.000385  -0.000144  -0.248986   0.151328
    40  H   -0.000032   0.000120   0.000099  -0.000030  -0.037736  -0.112952
    41  H    0.000096   0.000970  -0.001368   0.000048   0.014599  -0.058003
    42  H    0.000110  -0.002893   0.000913   0.000112   0.012474  -0.039713
    43  H   -0.000029   0.000205   0.000061   0.000007   0.009558  -0.343342
              37         38         39         40         41         42
     1  C    0.083053  -0.000362   0.090814   0.011451   0.018606  -0.014120
     2  C    0.039600  -0.000556   0.085010   0.004079   0.010286  -0.004577
     3  C    0.005545  -0.000067  -0.002235   0.000081  -0.000647   0.000798
     4  C   -0.005844  -0.000148  -0.002011  -0.000720  -0.001705   0.000570
     5  C   -0.014764  -0.001973  -0.004747  -0.002983  -0.005534   0.002730
     6  C   -0.076436   0.007035  -0.137240  -0.011081   0.002023   0.005103
     7  F    0.001065  -0.000023   0.005563  -0.000077  -0.000014   0.000562
     8  H   -0.003153   0.000023  -0.002035  -0.000006   0.000293  -0.000855
     9  H    0.000196  -0.000002  -0.000121   0.000001  -0.000002   0.000025
    10  H   -0.000182  -0.000004   0.000123   0.000011  -0.000046  -0.000004
    11  H    0.000516   0.000248   0.000251  -0.000134   0.001093  -0.000262
    12  H   -0.021723  -0.011592   0.004900   0.001498  -0.021442   0.009882
    13  O   -0.006144   0.000078  -0.007764  -0.000100  -0.000325   0.000106
    14  C   -0.000023  -0.000109   0.001889   0.000168  -0.000384   0.000213
    15  H   -0.000021   0.000047  -0.000532   0.000046  -0.000089   0.000001
    16  H    0.000010  -0.000008   0.000553  -0.000067   0.000277  -0.000988
    17  H    0.001609   0.000455   0.003543   0.000770   0.000045  -0.000980
    18  N   -0.002679   0.000013  -0.000415  -0.000068   0.000024  -0.000009
    19  C   -0.007097  -0.000175  -0.000073   0.000076   0.000058  -0.000027
    20  O   -0.000083  -0.000001   0.000002  -0.000002   0.000001   0.000004
    21  C    0.000062  -0.000022   0.000183  -0.000005  -0.000033   0.000043
    22  H    0.000112  -0.000002  -0.000002  -0.000001  -0.000001  -0.000000
    23  H    0.000064   0.000000  -0.000004   0.000000   0.000006   0.000009
    24  H   -0.000012   0.000002   0.000024  -0.000002  -0.000001   0.000005
    25  H    0.023727   0.001141   0.000462  -0.000714   0.000070   0.000448
    26  H    0.011353  -0.000108   0.018117   0.000144   0.000381   0.003144
    27  N   -0.000558   0.000015   0.000203   0.000127  -0.000286  -0.000422
    28  C   -0.000469   0.000003  -0.001676  -0.000066   0.000090  -0.000092
    29  O    0.000003   0.000000  -0.000007  -0.000001   0.000008   0.000021
    30  C   -0.001296  -0.000012  -0.002950  -0.000271   0.000439   0.000225
    31  H   -0.000046  -0.000001  -0.000261  -0.000032   0.000096   0.000110
    32  H   -0.000020   0.000018   0.000237   0.000120   0.000970  -0.002893
    33  H    0.000115   0.000010   0.000385   0.000099  -0.001368   0.000913
    34  H   -0.000003  -0.000001  -0.000144  -0.000030   0.000048   0.000112
    35  H   -0.227064   0.011493  -0.248986  -0.037736   0.014599   0.012474
    36  N    0.155471  -0.176318   0.151328  -0.112952  -0.058003  -0.039713
    37  C    5.136825   0.523934  -0.034137   0.031854  -0.003191  -0.015040
    38  O    0.523934   8.143435  -0.043866   0.035178  -0.002280  -0.003570
    39  C   -0.034137  -0.043866   5.370850   0.447770   0.390042   0.395026
    40  H    0.031854   0.035178   0.447770   0.473455  -0.026114  -0.029714
    41  H   -0.003191  -0.002280   0.390042  -0.026114   0.565567  -0.064433
    42  H   -0.015040  -0.003570   0.395026  -0.029714  -0.064433   0.563605
    43  H    0.305740  -0.039564  -0.039891   0.020007  -0.001431  -0.007243
              43
     1  C    0.020268
     2  C    0.022990
     3  C    0.001403
     4  C   -0.012944
     5  C   -0.016639
     6  C   -0.007114
     7  F   -0.002029
     8  H   -0.000745
     9  H    0.000005
    10  H   -0.000105
    11  H    0.002505
    12  H   -0.039386
    13  O   -0.000108
    14  C   -0.003935
    15  H    0.000240
    16  H    0.001111
    17  H    0.028552
    18  N    0.008927
    19  C    0.025482
    20  O    0.001035
    21  C   -0.001723
    22  H   -0.000821
    23  H    0.000023
    24  H    0.000297
    25  H   -0.092896
    26  H   -0.001043
    27  N    0.000286
    28  C    0.000083
    29  O   -0.000003
    30  C   -0.000046
    31  H   -0.000029
    32  H    0.000205
    33  H    0.000061
    34  H    0.000007
    35  H    0.009558
    36  N   -0.343342
    37  C    0.305740
    38  O   -0.039564
    39  C   -0.039891
    40  H    0.020007
    41  H   -0.001431
    42  H   -0.007243
    43  H    0.997953
 Mulliken charges:
               1
     1  C    0.359734
     2  C    0.054806
     3  C   -0.372846
     4  C   -0.556061
     5  C   -0.454484
     6  C    0.173675
     7  F   -0.038261
     8  H    0.055845
     9  H    0.273908
    10  H    0.213620
    11  H    0.273004
    12  H    0.104673
    13  O   -0.221615
    14  C    0.033818
    15  H    0.130512
    16  H    0.134754
    17  H    0.090025
    18  N   -0.063283
    19  C    0.082500
    20  O   -0.445104
    21  C   -0.448045
    22  H    0.194464
    23  H    0.188917
    24  H    0.182333
    25  H    0.173177
    26  H    0.021240
    27  N   -0.040537
    28  C    0.110293
    29  O   -0.448195
    30  C   -0.430900
    31  H    0.195581
    32  H    0.188962
    33  H    0.182043
    34  H    0.157489
    35  H    0.037593
    36  N   -0.043600
    37  C    0.099133
    38  O   -0.442364
    39  C   -0.438175
    40  H    0.195943
    41  H    0.182307
    42  H    0.188817
    43  H    0.164301
 Sum of Mulliken charges =  -0.00000
 Mulliken charges with hydrogens summed into heavy atoms:
               1
     1  C    0.359734
     2  C    0.110651
     3  C   -0.098937
     4  C   -0.342441
     5  C   -0.181480
     6  C    0.278348
     7  F   -0.038261
    13  O   -0.221615
    14  C    0.299084
    18  N    0.026742
    19  C    0.255677
    20  O   -0.445104
    21  C    0.117669
    27  N   -0.019297
    28  C    0.267782
    29  O   -0.448195
    30  C    0.135687
    36  N   -0.006007
    37  C    0.263434
    38  O   -0.442364
    39  C    0.128892
 Electronic spatial extent (au):  <R**2>=           8900.6230
 Charge=              0.0000 electrons
 Dipole moment (field-independent basis, Debye):
    X=             -2.5640    Y=             -3.3887    Z=              1.9685  Tot=              4.6832
 Quadrupole moment (field-independent basis, Debye-Ang):
   XX=           -194.5864   YY=           -153.1441   ZZ=            -96.4635
   XY=             -6.9017   XZ=              0.3076   YZ=              2.1742
 Traceless Quadrupole moment (field-independent basis, Debye-Ang):
   XX=            -46.5218   YY=             -5.0794   ZZ=             51.6012
   XY=             -6.9017   XZ=              0.3076   YZ=              2.1742
 Octapole moment (field-independent basis, Debye-Ang**2):
  XXX=             46.2338  YYY=           -189.0866  ZZZ=            -57.4663  XYY=           -129.2859
  XXY=             85.3630  XXZ=             89.1615  XZZ=              0.6564  YZZ=             -3.2889
  YYZ=             -2.2128  XYZ=             -0.1686
 Hexadecapole moment (field-independent basis, Debye-Ang**3):
 XXXX=          -7338.7409 YYYY=          -4480.2879 ZZZZ=          -2300.9321 XXXY=            249.6782
 XXXZ=            -94.4141 YYYX=           -400.4336 YYYZ=            149.3138 ZZZX=            -14.1204
 ZZZY=            -12.2549 XXYY=          -1732.9801 XXZZ=          -1347.7969 YYZZ=          -1189.3434
 XXYZ=            -74.9956 YYXZ=            104.6705 ZZXY=            -16.0495
 N-N= 1.648685866806D+03 E-N=-5.807694578928D+03  KE= 1.069623940334D+03
 1\1\GINC-R820\POpt\RM062X\6-311++G(d,p)\C13H22F1N3O4\ZJXU\03-Apr-2024\
 1\\# opt=(z-matrix,loose) 6-311++g(d,p) m062x scrf=(solvent=chloroform
 )\\test\\0,1\C\C,1,B1\C,2,B2,1,120.00000011\C,3,B3,2,120.,1,0.,0\C,4,B
 4,3,119.99999989,2,0.,0\C,1,B5,2,119.97770821,3,1.71722694,0\F,1,B6,2,
 119.9999999,3,-180.,0\H,2,B7,1,120.00000011,6,-178.28277306,0\H,3,B8,2
 ,120.00000011,1,180.,0\H,4,B9,3,120.,2,180.,0\H,5,B10,4,120.00000011,3
 ,180.,0\H,6,B11,1,119.91553063,2,-177.77151684,0\O,1,B12,2,119.9999999
 ,3,-180.,0\C,13,B13,1,179.90000005,2,180.,0\H,14,B14,13,119.99996989,1
 ,-90.04490481,0\H,14,B15,13,119.99996989,1,90.04490481,0\H,7,B16,1,100
 .00000001,2,90.,0\N,17,B17,7,179.9,1,90.,0\C,18,B18,17,119.5,7,0.,0\O,
 19,B19,18,123.2,17,-180.,0\C,18,B20,17,121.9,19,-180.,0\H,21,B21,18,11
 0.7,17,-180.,0\H,21,B22,18,110.7,17,-60.,0\H,21,B23,18,110.7,17,60.,0\
 H,19,B24,18,113.46721803,17,0.,0\H,7,B25,1,100.00000001,2,-30.,0\N,26,
 B26,7,179.9,1,-30.,0\C,27,B27,26,119.5,7,120.,0\O,28,B28,27,123.2,26,-
 180.,0\C,27,B29,26,121.9,28,-180.,0\H,30,B30,27,110.7,26,180.,0\H,30,B
 31,27,110.7,26,-60.,0\H,30,B32,27,110.7,26,60.,0\H,28,B33,27,113.46721
 803,26,0.,0\H,7,B34,1,100.00000001,2,-150.,0\N,35,B35,7,179.9,1,-150.,
 0\C,36,B36,35,119.5,7,60.,0\O,37,B37,36,123.2,35,-180.,0\C,36,B38,35,1
 21.9,37,-180.,0\H,39,B39,36,110.7,35,180.,0\H,39,B40,36,110.7,35,-60.,
 0\H,39,B41,36,110.7,35,60.,0\H,37,B42,36,113.46721803,35,0.,0\\B1=1.38
 786904\B2=1.39037931\B3=1.38736806\B4=1.38791037\B5=1.38812785\B6=1.36
 321061\B7=1.0831944\B8=1.08247942\B9=1.08295712\B10=1.08246612\B11=1.0
 8309259\B12=4.19284308\B13=1.203952\B14=1.10123185\B15=1.10129886\B16=
 2.13408755\B17=1.00794551\B18=1.3528588\B19=1.21892897\B20=1.45267245\
 B21=1.08483489\B22=1.09231826\B23=1.09230909\B24=1.10007104\B25=2.2972
 9615\B26=1.00810022\B27=1.35397343\B28=1.21811124\B29=1.45292065\B30=1
 .08483289\B31=1.09204401\B32=1.09214706\B33=1.10067697\B34=2.32801932\
 B35=1.00817421\B36=1.35429184\B37=1.21794817\B38=1.45288806\B39=1.0847
 9417\B40=1.09213925\B41=1.09206669\B42=1.10066443\\Version=ES64L-G16Re
 vB.01\State=1-A\HF=-1073.4772323\RMSD=3.354e-09\RMSF=5.069e-03\Dipole=
 0.3124961,-1.4467456,1.0973584\Quadrupole=21.9289881,-5.7462209,-16.18
 27673,-2.2603062,29.8441369,9.3014731\PG=C01 [X(C13H22F1N3O4)]\\@


 Everywhere is walking distance if you have the time.
                                    -- Steven Wright
 Job cpu time:       0 days 16 hours  3 minutes 25.1 seconds.
 Elapsed time:       0 days  4 hours  0 minutes 53.9 seconds.
 File lengths (MBytes):  RWF=    677 Int=      0 D2E=      0 Chk=     41 Scr=      1
 Normal termination of Gaussian 16 at Wed Apr  3 17:19:20 2024.
