 Entering Gaussian System, Link 0=g16
 Input=model_H2b.gjf
 Output=model_H2b.log
 Initial command:
 /home/dddc/software/g16/g16/l1.exe "/home/dddc/software/g16/scr/Gau-239888.inp" -scrdir="/home/dddc/software/g16/scr/"
 Entering Link 1 = /home/dddc/software/g16/g16/l1.exe PID=    239889.
  
 Copyright (c) 1988-2017, Gaussian, Inc.  All Rights Reserved.
  
 This is part of the Gaussian(R) 16 program.  It is based on
 the Gaussian(R) 09 system (copyright 2009, Gaussian, Inc.),
 the Gaussian(R) 03 system (copyright 2003, Gaussian, Inc.),
 the Gaussian(R) 98 system (copyright 1998, Gaussian, Inc.),
 the Gaussian(R) 94 system (copyright 1995, Gaussian, Inc.),
 the Gaussian 92(TM) system (copyright 1992, Gaussian, Inc.),
 the Gaussian 90(TM) system (copyright 1990, Gaussian, Inc.),
 the Gaussian 88(TM) system (copyright 1988, Gaussian, Inc.),
 the Gaussian 86(TM) system (copyright 1986, Carnegie Mellon
 University), and the Gaussian 82(TM) system (copyright 1983,
 Carnegie Mellon University). Gaussian is a federally registered
 trademark of Gaussian, Inc.
  
 This software contains proprietary and confidential information,
 including trade secrets, belonging to Gaussian, Inc.
  
 This software is provided under written license and may be
 used, copied, transmitted, or stored only in accord with that
 written license.
  
 The following legend is applicable only to US Government
 contracts under FAR:
  
                    RESTRICTED RIGHTS LEGEND
  
 Use, reproduction and disclosure by the US Government is
 subject to restrictions as set forth in subparagraphs (a)
 and (c) of the Commercial Computer Software - Restricted
 Rights clause in FAR 52.227-19.
  
 Gaussian, Inc.
 340 Quinnipiac St., Bldg. 40, Wallingford CT 06492
  
  
 ---------------------------------------------------------------
 Warning -- This program may not be used in any manner that
 competes with the business of Gaussian, Inc. or will provide
 assistance to any competitor of Gaussian, Inc.  The licensee
 of this program is prohibited from giving any competitor of
 Gaussian, Inc. access to this program.  By using this program,
 the user acknowledges that Gaussian, Inc. is engaged in the
 business of creating and licensing software in the field of
 computational chemistry and represents and warrants to the
 licensee that it is not a competitor of Gaussian, Inc. and that
 it will not use this program in any manner prohibited above.
 ---------------------------------------------------------------
  

 Cite this work as:
 Gaussian 16, Revision B.01,
 M. J. Frisch, G. W. Trucks, H. B. Schlegel, G. E. Scuseria, 
 M. A. Robb, J. R. Cheeseman, G. Scalmani, V. Barone, 
 G. A. Petersson, H. Nakatsuji, X. Li, M. Caricato, A. V. Marenich, 
 J. Bloino, B. G. Janesko, R. Gomperts, B. Mennucci, H. P. Hratchian, 
 J. V. Ortiz, A. F. Izmaylov, J. L. Sonnenberg, D. Williams-Young, 
 F. Ding, F. Lipparini, F. Egidi, J. Goings, B. Peng, A. Petrone, 
 T. Henderson, D. Ranasinghe, V. G. Zakrzewski, J. Gao, N. Rega, 
 G. Zheng, W. Liang, M. Hada, M. Ehara, K. Toyota, R. Fukuda, 
 J. Hasegawa, M. Ishida, T. Nakajima, Y. Honda, O. Kitao, H. Nakai, 
 T. Vreven, K. Throssell, J. A. Montgomery, Jr., J. E. Peralta, 
 F. Ogliaro, M. J. Bearpark, J. J. Heyd, E. N. Brothers, K. N. Kudin, 
 V. N. Staroverov, T. A. Keith, R. Kobayashi, J. Normand, 
 K. Raghavachari, A. P. Rendell, J. C. Burant, S. S. Iyengar, 
 J. Tomasi, M. Cossi, J. M. Millam, M. Klene, C. Adamo, R. Cammi, 
 J. W. Ochterski, R. L. Martin, K. Morokuma, O. Farkas, 
 J. B. Foresman, and D. J. Fox, Gaussian, Inc., Wallingford CT, 2016.
 
 ******************************************
 Gaussian 16:  ES64L-G16RevB.01 20-Dec-2017
                24-Mar-2024 
 ******************************************
 %mem=8GB
 %nprocshared=8
 Will use up to    8 processors via shared memory.
 %chk=model_H2b.chk
 ------------------------------------------------------------
 # opt=z-matrix 6-311++g(d,p) m062x scrf=(solvent=chloroform)
 ------------------------------------------------------------
 1/10=7,18=40,26=3,38=1/1,3;
 2/12=2,17=6,18=5,29=3,40=1/2;
 3/5=4,6=6,7=1111,11=2,25=1,30=1,70=2201,71=1,72=7,74=-55/1,2,3;
 4//1;
 5/5=2,38=5,53=7/2;
 6/7=2,8=2,9=2,10=2,28=1/1;
 7/29=1/1,2,3,16;
 1/10=7,18=40,26=3/3(2);
 2/29=3/2;
 99//99;
 2/29=3/2;
 3/5=4,6=6,7=1111,11=2,25=1,30=1,70=2205,71=1,72=7,74=-55/1,2,3;
 4/5=5,16=3,69=1/1;
 5/5=2,38=5,53=7/2;
 7//1,2,3,16;
 1/18=40,26=3/3(-5);
 2/29=3/2;
 6/7=2,8=2,9=2,10=2,19=2,28=1/1;
 99/9=1/99;
 ----
 test
 ----
 Symbolic Z-matrix:
 Charge =  0 Multiplicity = 1
 C
 C                    1    B1
 C                    2    B2       1     120. 
 C                    3    B3       2     120.     1     0.       0
 C                    4    B4       3     120.     2     0.       0
 C                    1    B5       2     119.97771  3     1.71723  0
 F                    1    B6       2     120.     3    -180.     0
 H                    2    B7       1     120.     6    -178.28277  0
 H                    3    B8       2     120.     1     180.     0
 H                    4    B9       3     120.     2     180.     0
 H                    5    B10      4     120.     3     180.     0
 H                    6    B11      1     119.91553  2    -177.77152  0
 O                    1    B12      2     120.     3    -180.     0
 C                    13   B13      1     179.9    2     180.     0
 H                    14   B14      13    119.99997  1    -90.0449  0
 H                    14   B15      13    119.99997  1     90.0449  0
 H                    7    B16      1     100.     2     90.      0
 N                    17   B17      7     179.9    1     90.      0
 C                    18   B18      17    119.5    7     0.       0
 O                    19   B19      18    123.2    17   -180.     0
 C                    18   B20      17    121.9    19   -180.     0
 H                    21   B21      18    110.7    17   -180.     0
 H                    21   B22      18    110.7    17   -60.      0
 H                    21   B23      18    110.7    17    60.      0
 H                    19   B24      18    113.46722  17    0.       0
 H                    7    B25      1     100.     2    -90.      0
 N                    26   B26      7     179.9    1    -90.      0
 C                    27   B27      26    119.5    7     180.     0
 O                    28   B28      27    123.2    26   -180.     0
 C                    27   B29      26    121.9    28   -180.     0
 H                    30   B30      27    110.7    26    180.     0
 H                    30   B31      27    110.7    26   -60.      0
 H                    30   B32      27    110.7    26    60.      0
 H                    28   B33      27    113.46722  26    0.       0
       Variables:
  B1                    1.3                      
  B2                    1.3                      
  B3                    1.3                      
  B4                    1.3                      
  B5                    1.3                      
  B6                    1.4                      
  B7                    1.                       
  B8                    1.                       
  B9                    1.                       
  B10                   1.                       
  B11                   1.00101                  
  B12                   4.2                      
  B13                   1.2                      
  B14                   1.                       
  B15                   1.                       
  B16                   2.12                     
  B17                   1.                       
  B18                   1.33                     
  B19                   1.23                     
  B20                   1.45                     
  B21                   1.                       
  B22                   1.                       
  B23                   1.                       
  B24                   1.                       
  B25                   2.12                     
  B26                   1.                       
  B27                   1.33                     
  B28                   1.23                     
  B29                   1.45                     
  B30                   1.                       
  B31                   1.                       
  B32                   1.                       
  B33                   1.                       
 

 GradGradGradGradGradGradGradGradGradGradGradGradGradGradGradGradGradGrad
 Berny optimization.
 Initialization pass.
                       ----------------------------
                       !    Initial Parameters    !
                       ! (Angstroms and Degrees)  !
 ----------------------                            ----------------------
 !      Name          Value   Derivative information (Atomic Units)     !
 ------------------------------------------------------------------------
 !       B1          1.3      estimate D2E/DX2                          !
 !       B2          1.3      estimate D2E/DX2                          !
 !       B3          1.3      estimate D2E/DX2                          !
 !       B4          1.3      estimate D2E/DX2                          !
 !       B5          1.3      estimate D2E/DX2                          !
 !       B6          1.4      estimate D2E/DX2                          !
 !       B7          1.0      estimate D2E/DX2                          !
 !       B8          1.0      estimate D2E/DX2                          !
 !       B9          1.0      estimate D2E/DX2                          !
 !       B10         1.0      estimate D2E/DX2                          !
 !       B11         1.001    estimate D2E/DX2                          !
 !       B12         4.2      estimate D2E/DX2                          !
 !       B13         1.2      estimate D2E/DX2                          !
 !       B14         1.0      estimate D2E/DX2                          !
 !       B15         1.0      estimate D2E/DX2                          !
 !       B16         2.12     estimate D2E/DX2                          !
 !       B17         1.0      estimate D2E/DX2                          !
 !       B18         1.33     estimate D2E/DX2                          !
 !       B19         1.23     estimate D2E/DX2                          !
 !       B20         1.45     estimate D2E/DX2                          !
 !       B21         1.0      estimate D2E/DX2                          !
 !       B22         1.0      estimate D2E/DX2                          !
 !       B23         1.0      estimate D2E/DX2                          !
 !       B24         1.0      estimate D2E/DX2                          !
 !       B25         2.12     estimate D2E/DX2                          !
 !       B26         1.0      estimate D2E/DX2                          !
 !       B27         1.33     estimate D2E/DX2                          !
 !       B28         1.23     estimate D2E/DX2                          !
 !       B29         1.45     estimate D2E/DX2                          !
 !       B30         1.0      estimate D2E/DX2                          !
 !       B31         1.0      estimate D2E/DX2                          !
 !       B32         1.0      estimate D2E/DX2                          !
 !       B33         1.0      estimate D2E/DX2                          !
 ------------------------------------------------------------------------
 Trust Radius=3.00D-01 FncErr=1.00D-07 GrdErr=1.00D-06 EigMax=2.50D+02 EigMin=1.00D-04
 Number of steps in this run=     43 maximum allowed number of steps=    100.
 GradGradGradGradGradGradGradGradGradGradGradGradGradGradGradGradGradGrad

 ---------------------------------------------------------------------------------------------------
                            Z-MATRIX (ANGSTROMS AND DEGREES)
   CD    Cent   Atom    N1       Length/X        N2       Alpha/Y        N3        Beta/Z          J
 ---------------------------------------------------------------------------------------------------
      1      1  C 
      2      2  C        1   1.300000(     1)
      3      3  C        2   1.300000(     2)      1  120.000(    34)
      4      4  C        3   1.300000(     3)      2  120.000(    35)      1    0.000(    66)      0
      5      5  C        4   1.300000(     4)      3  120.000(    36)      2    0.000(    67)      0
      6      6  C        1   1.300000(     5)      2  119.978(    37)      3    1.717(    68)      0
      7      7  F        1   1.400000(     6)      2  120.000(    38)      3 -180.000(    69)      0
      8      8  H        2   1.000000(     7)      1  120.000(    39)      6 -178.283(    70)      0
      9      9  H        3   1.000000(     8)      2  120.000(    40)      1  180.000(    71)      0
     10     10  H        4   1.000000(     9)      3  120.000(    41)      2  180.000(    72)      0
     11     11  H        5   1.000000(    10)      4  120.000(    42)      3  180.000(    73)      0
     12     12  H        6   1.001007(    11)      1  119.916(    43)      2 -177.772(    74)      0
     13     13  O        1   4.200000(    12)      2  120.000(    44)      3 -180.000(    75)      0
     14     14  C       13   1.200000(    13)      1  179.900(    45)      2  180.000(    76)      0
     15     15  H       14   1.000000(    14)     13  120.000(    46)      1  -90.045(    77)      0
     16     16  H       14   1.000000(    15)     13  120.000(    47)      1   90.045(    78)      0
     17     17  H        7   2.120000(    16)      1  100.000(    48)      2   90.000(    79)      0
     18     18  N       17   1.000000(    17)      7  179.900(    49)      1   90.000(    80)      0
     19     19  C       18   1.330000(    18)     17  119.500(    50)      7    0.000(    81)      0
     20     20  O       19   1.230000(    19)     18  123.200(    51)     17 -180.000(    82)      0
     21     21  C       18   1.450000(    20)     17  121.900(    52)     19 -180.000(    83)      0
     22     22  H       21   1.000000(    21)     18  110.700(    53)     17 -180.000(    84)      0
     23     23  H       21   1.000000(    22)     18  110.700(    54)     17  -60.000(    85)      0
     24     24  H       21   1.000000(    23)     18  110.700(    55)     17   60.000(    86)      0
     25     25  H       19   1.000000(    24)     18  113.467(    56)     17    0.000(    87)      0
     26     26  H        7   2.120000(    25)      1  100.000(    57)      2  -90.000(    88)      0
     27     27  N       26   1.000000(    26)      7  179.900(    58)      1  -90.000(    89)      0
     28     28  C       27   1.330000(    27)     26  119.500(    59)      7  180.000(    90)      0
     29     29  O       28   1.230000(    28)     27  123.200(    60)     26 -180.000(    91)      0
     30     30  C       27   1.450000(    29)     26  121.900(    61)     28 -180.000(    92)      0
     31     31  H       30   1.000000(    30)     27  110.700(    62)     26  180.000(    93)      0
     32     32  H       30   1.000000(    31)     27  110.700(    63)     26  -60.000(    94)      0
     33     33  H       30   1.000000(    32)     27  110.700(    64)     26   60.000(    95)      0
     34     34  H       28   1.000000(    33)     27  113.467(    65)     26    0.000(    96)      0
 ---------------------------------------------------------------------------------------------------
                         Z-Matrix orientation:                         
 ---------------------------------------------------------------------
 Center     Atomic      Atomic             Coordinates (Angstroms)
 Number     Number       Type             X           Y           Z
 ---------------------------------------------------------------------
      1          6           0        0.000000    0.000000    0.000000
      2          6           0        0.000000    0.000000    1.300000
      3          6           0        1.125833    0.000000    1.950000
      4          6           0        2.251666    0.000000    1.300000
      5          6           0        2.251666    0.000000    0.000000
      6          6           0        1.125580   -0.033745   -0.649562
      7          9           0       -1.212436    0.000000   -0.700000
      8          1           0       -0.866025    0.000000    1.800000
      9          1           0        1.125833    0.000000    2.950000
     10          1           0        3.117691    0.000000    1.800000
     11          1           0        3.117691    0.000000   -0.500000
     12          1           0        1.125833   -0.000000   -1.650000
     13          8           0       -3.637307    0.000000   -2.100000
     14          6           0       -4.675488    0.000000   -2.701813
     15          1           0       -5.108404    0.866025   -2.951981
     16          1           0       -5.108404   -0.866025   -2.951981
     17          1           0       -1.531249    2.087792   -0.884067
     18          7           0       -1.680760    3.072599   -0.972403
     19          6           0       -1.199589    3.715582   -2.032566
     20          8           0       -1.343395    4.924232   -2.209721
     21          6           0       -2.411147    3.829308    0.025809
     22          1           0       -2.460643    4.795025   -0.229027
     23          1           0       -3.344400    3.482475    0.119330
     24          1           0       -1.962551    3.763826    0.917141
     25          1           0       -0.710188    3.121088   -2.670583
     26          1           0       -1.531249   -2.087792   -0.884067
     27          7           0       -1.680760   -3.072599   -0.972403
     28          6           0       -2.357768   -3.719561   -0.027945
     29          8           0       -2.580991   -4.928484   -0.067642
     30          6           0       -1.179494   -3.825076   -2.105985
     31          1           0       -1.423325   -4.791461   -2.024456
     32          1           0       -1.565208   -3.476362   -2.960165
     33          1           0       -0.183359   -3.757713   -2.162354
     34          1           0       -2.667076   -3.127812    0.716476
 ---------------------------------------------------------------------
                    Distance matrix (angstroms):
                    1          2          3          4          5
     1  C    0.000000
     2  C    1.300000   0.000000
     3  C    2.251666   1.300000   0.000000
     4  C    2.600000   2.251666   1.300000   0.000000
     5  C    2.251666   2.600000   2.251666   1.300000   0.000000
     6  C    1.300000   2.251413   2.599781   2.251666   1.300438
     7  F    1.400000   2.338803   3.534119   4.000000   3.534119
     8  H    1.997498   1.000000   1.997498   3.157531   3.600000
     9  H    3.157531   1.997498   1.000000   1.997498   3.157531
    10  H    3.600000   3.157531   1.997498   1.000000   1.997498
    11  H    3.157531   3.600000   3.157531   1.997498   1.000000
    12  H    1.997498   3.157531   3.600000   3.157531   1.997498
    13  O    4.200000   4.978956   6.252200   6.800000   6.252200
    14  C    5.399999   6.154242   7.436040   7.999998   7.435406
    15  H    5.963219   6.702621   7.977790   8.544002   7.977144
    16  H    5.963219   6.702621   7.977790   8.544002   7.977144
    17  H    2.735905   3.387292   4.410317   4.841433   4.410317
    18  N    3.634747   4.174881   5.085102   5.483489   5.084329
    19  C    4.401805   5.133279   5.922328   6.068171   5.463335
    20  O    5.561982   6.194426   6.902784   7.034960   6.485013
    21  C    4.525251   4.701148   5.556648   6.166765   6.033746
    22  H    5.394393   5.602227   6.372066   6.894639   6.726854
    23  H    4.829791   4.970576   5.954995   6.696086   6.592255
    24  H    4.342712   4.261992   4.977078   5.663267   5.724261
    25  H    4.168641   5.100106   5.870430   5.854853   5.064167
    26  H    2.735905   3.387292   4.410317   4.841433   4.410317
    27  N    3.634747   4.174881   5.085102   5.483489   5.084329
    28  C    4.403973   4.599743   5.466523   6.070045   5.923073
    29  O    5.563816   5.729041   6.488558   7.036688   6.902833
    30  C    4.523007   5.255773   6.032972   6.164804   5.553309
    31  H    5.392808   6.002996   6.727006   6.893161   6.368837
    32  H    4.826753   5.716990   6.590638   6.693476   5.951151
    33  H    4.339332   5.112918   5.722399   5.660181   4.972477
    34  H    4.172510   4.151747   5.068624   5.858134   5.872867
                    6          7          8          9         10
     6  C    0.000000
     7  F    2.338803   0.000000
     8  H    3.157212   2.523886   0.000000
     9  H    3.599720   4.334743   2.300000   0.000000
    10  H    3.157531   5.000000   3.983717   2.300000   0.000000
    11  H    1.998003   4.334743   4.600000   3.983717   2.300000
    12  H    1.001007   2.523886   3.983717   4.600000   3.983717
    13  O    4.978956   2.800000   4.784349   6.941902   7.800000
    14  C    6.153476   3.999999   5.897315   8.099279   8.999998
    15  H    6.706212   4.582574   6.428771   8.628389   9.539390
    16  H    6.697491   4.582574   6.428771   8.628389   9.539390
    17  H    3.408028   2.120000   3.464912   5.110678   5.759839
    18  N    4.198707   3.119999   4.217923   5.718660   6.336577
    19  C    4.623479   3.947334   5.348399   6.636196   6.865349
    20  O    5.754257   5.152132   6.368187   7.547706   7.760620
    21  C    5.280885   4.077660   4.494303   5.977016   6.955531
    22  H    6.029500   4.977158   5.445367   6.779475   7.630663
    23  H    5.738965   4.164638   4.592888   6.334296   7.530665
    24  H    5.139325   4.164638   4.018482   5.276080   6.383940
    25  H    4.172235   3.725136   5.454502   6.686039   6.661829
    26  H    3.366429   2.120000   3.464912   5.110678   5.759839
    27  N    4.149024   3.119999   4.217923   5.718660   6.336577
    28  C    5.109340   3.949503   4.404749   5.902437   6.867108
    29  O    6.167314   5.153909   5.542486   6.865615   7.762282
    30  C    4.669981   4.075425   5.475965   6.746016   6.953685
    31  H    5.569840   4.975616   6.155903   7.362168   7.629246
    32  H    4.942756   4.161477   5.935749   7.365925   7.528201
    33  H    4.227269   4.161477   5.503335   6.478469   6.381034
    34  H    5.081687   3.729020   3.768423   5.399814   6.664890
                   11         12         13         14         15
    11  H    0.000000
    12  H    2.300000   0.000000
    13  O    6.941902   4.784349   0.000000
    14  C    8.098249   5.895900   1.200000   0.000000
    15  H    8.627332   6.427353   1.907878   1.000000   0.000000
    16  H    8.627332   6.427353   1.907878   1.000000   1.732051
    17  H    5.110678   3.464912   3.205129   4.189191   4.308714
    18  N    5.717444   4.216274   3.813189   4.626027   4.531715
    19  C    5.898577   4.399942   4.444386   5.131795   4.923833
    20  O    6.860940   5.537006   5.433427   5.965992   5.585274
    21  C    6.745971   5.475597   4.548201   5.218310   4.992341
    22  H    7.360944   6.154205   5.279900   5.832022   5.464628
    23  H    7.366806   5.936425   4.139910   4.675284   4.403461
    24  H    6.479471   5.504064   5.106304   5.884152   5.767473
    25  H    5.394931   3.762148   4.316802   5.046363   4.950636
    26  H    5.110678   3.464912   3.205129   4.189191   5.079109
    27  N    5.717444   4.216274   3.813189   4.626027   5.583926
    28  C    6.636160   5.348053   4.445871   5.133862   6.094554
    29  O    7.546646   6.366660   5.434725   5.967892   6.948638
    30  C    5.972956   4.489283   4.546657   5.216148   6.177255
    31  H    6.775168   5.440269   5.278780   5.830392   6.815223
    32  H    6.329854   4.587301   4.137460   4.671797   5.604519
    33  H    5.270746   4.012094   5.104317   5.881382   6.801363
    34  H    6.687791   5.456150   4.319385   5.049913   5.947133
                   16         17         18         19         20
    16  H    0.000000
    17  H    5.079109   0.000000
    18  N    5.583926   1.000000   0.000000
    19  C    6.092232   2.019591   1.330000   0.000000
    20  O    6.946461   3.136564   2.252403   1.230000   0.000000
    21  C    6.179691   2.152898   1.450000   2.391174   2.708605
    22  H    6.817082   2.936317   2.031644   2.451165   2.277737
    23  H    5.608397   2.497892   2.031644   3.047165   3.392221
    24  H    6.804559   2.497892   2.031644   3.047165   3.392221
    25  H    5.943111   2.221144   1.956573   1.000000   1.965877
    26  H    4.308714   4.175585   5.163312   5.925217   7.138707
    27  N    4.531715   5.163312   6.145197   6.887297   8.099017
    28  C    4.925307   5.928021   6.890847   7.787248   8.972416
    29  O    5.586663   7.141194   8.102243   8.971570  10.158551
    30  C    4.990794   6.048044   7.008152   7.541042   8.751458
    31  H    5.463438   6.973970   7.938295   8.509988   9.717788
    32  H    4.400928   5.938952   6.844957   7.260728   8.436963
    33  H    5.765539   6.133577   7.093050   7.543189   8.759230
    34  H    4.953114   5.572645   6.501555   7.519494   8.668920
                   21         22         23         24         25
    21  C    0.000000
    22  H    1.000000   0.000000
    23  H    1.000000   1.620237   0.000000
    24  H    1.000000   1.620237   1.620237   0.000000
    25  H    3.265787   3.439091   3.853996   3.853996   0.000000
    26  H    6.050965   6.976104   5.943249   6.137737   5.567604
    27  N    7.011862   7.941053   6.850443   7.098344   6.495197
    28  C    7.549249   8.517581   7.270795   7.553176   7.516152
    29  O    8.759938   9.725593   8.447603   8.769751   8.664342
    30  C    8.040592   8.914621   7.939720   8.206334   6.984857
    31  H    8.916111   9.808176   8.760386   9.062930   7.970852
    32  H    7.937536   8.756527   7.815001   8.222634   6.658924
    33  H    8.204511   9.059421   8.223053   8.319999   6.917641
    34  H    6.996002   7.981725   6.671675   6.930462   7.372268
                   26         27         28         29         30
    26  H    0.000000
    27  N    1.000000   0.000000
    28  C    2.019591   1.330000   0.000000
    29  O    3.136564   2.252403   1.230000   0.000000
    30  C    2.152898   1.450000   2.391174   2.708605   0.000000
    31  H    2.936317   2.031644   2.451165   2.277737   1.000000
    32  H    2.497892   2.031644   3.047165   3.392221   1.000000
    33  H    2.497892   2.031644   3.047165   3.392221   1.000000
    34  H    2.221144   1.956573   1.000000   1.965877   3.265787
                   31         32         33         34
    31  H    0.000000
    32  H    1.620237   0.000000
    33  H    1.620237   1.620237   0.000000
    34  H    3.439091   3.853996   3.853996   0.000000
 Stoichiometry    C11H17FN2O3
 Framework group  C1[X(C11H17FN2O3)]
 Deg. of freedom    96
 Full point group                 C1      NOp   1
 Largest Abelian subgroup         C1      NOp   1
 Largest concise Abelian subgroup C1      NOp   1
                         Standard orientation:                         
 ---------------------------------------------------------------------
 Center     Atomic      Atomic             Coordinates (Angstroms)
 Number     Number       Type             X           Y           Z
 ---------------------------------------------------------------------
      1          6           0        0.000457    1.291765   -0.001238
      2          6           0       -0.089187    1.942161   -1.123267
      3          6           0       -0.090338    3.242160   -1.122716
      4          6           0       -0.001845    3.891764   -0.000137
      5          6           0        0.087799    3.241368    1.121892
      6          6           0        0.055271    1.941337    1.123507
      7          9           0        0.001697   -0.108234   -0.001831
      8          1           0       -0.157258    1.442466   -1.986789
      9          1           0       -0.159295    3.742465   -1.985815
     10          1           0       -0.002731    4.891763    0.000287
     11          1           0        0.155870    3.741062    1.985415
     12          1           0        0.157907    1.441064    1.984441
     13          8           0        0.004177   -2.908233   -0.003016
     14          6           0        0.005406   -4.108231   -0.001437
     15          1           0        0.869175   -4.607438   -0.069969
     16          1           0       -0.857447   -4.609025    0.067059
     17          1           0        2.083271   -0.474455   -0.167158
     18          7           0        3.065282   -0.647201   -0.243403
     19          6           0        3.798020   -0.760395    0.860763
     20          8           0        5.009519   -0.972434    0.846314
     21          6           0        3.722454   -0.779503   -1.529141
     22          1           0        4.700797   -0.948969   -1.410282
     23          1           0        3.334059   -1.541087   -2.047926
     24          1           0        3.613115    0.054791   -2.069509
     25          1           0        3.268370   -0.656395    1.702579
     26          1           0       -2.079224   -0.478282    0.163185
     27          7           0       -3.060651   -0.652833    0.242763
     28          6           0       -3.796974   -0.767095   -0.858906
     29          8           0       -5.008029   -0.981341   -0.840345
     30          6           0       -3.713158   -0.786638    1.530719
     31          1           0       -4.691593   -0.957855    1.415182
     32          1           0       -3.321597   -1.547639    2.047979
     33          1           0       -3.603479    0.047724    2.070914
     34          1           0       -3.270411   -0.661930   -1.702512
 ---------------------------------------------------------------------
 Rotational constants (GHZ):           0.4004203           0.2441305           0.1724963
 Standard basis: 6-311++G(d,p) (5D, 7F)
 There are   510 symmetry adapted cartesian basis functions of A   symmetry.
 There are   493 symmetry adapted basis functions of A   symmetry.
   493 basis functions,   765 primitive gaussians,   510 cartesian basis functions
    65 alpha electrons       65 beta electrons
       nuclear repulsion energy      1168.0421586032 Hartrees.
 NAtoms=   34 NActive=   34 NUniq=   34 SFac= 1.00D+00 NAtFMM=   60 NAOKFM=F Big=F
 Integral buffers will be    131072 words long.
 Raffenetti 2 integral format.
 Two-electron integral symmetry is turned on.
 ------------------------------------------------------------------------------
 Polarizable Continuum Model (PCM)
 =================================
 Model                : PCM.
 Atomic radii         : UFF (Universal Force Field).
 Polarization charges : Total charges.
 Charge compensation  : None.
 Solution method      : On-the-fly selection.
 Cavity type          : Scaled VdW (van der Waals Surface) (Alpha=1.100).
 Cavity algorithm     : GePol (No added spheres)
                        Default sphere list used, NSphG=   34.
                        Lebedev-Laikov grids with approx.  5.0 points / Ang**2.
                        Smoothing algorithm: York/Karplus (Gamma=1.0000).
                        Polarization charges: spherical gaussians, with
                                              point-specific exponents (IZeta= 3).
                        Self-potential: point-specific (ISelfS= 7).
                        Self-field    : sphere-specific E.n sum rule (ISelfD= 2).
 1st derivatives      : Analytical E(r).r(x)/FMM algorithm (CHGder, D1EAlg=3).
                        Cavity 1st derivative terms included.
 Solvent              : Chloroform, Eps=   4.711300 Eps(inf)=   2.090627
 ------------------------------------------------------------------------------
 One-electron integrals computed using PRISM.
 NBasis=   493 RedAO= T EigKep=  2.78D-06  NBF=   493
 NBsUse=   492 1.00D-06 EigRej=  3.49D-07 NBFU=   492
 ExpMin= 3.60D-02 ExpMax= 1.14D+04 ExpMxC= 1.72D+03 IAcc=3 IRadAn=         5 AccDes= 0.00D+00
 Harris functional with IExCor= 1009 and IRadAn=       5 diagonalized for initial guess.
 HarFok:  IExCor= 1009 AccDes= 0.00D+00 IRadAn=         5 IDoV= 1 UseB2=F ITyADJ=14
 ICtDFT=  3500011 ScaDFX=  1.000000  1.000000  1.000000  1.000000
 FoFCou: FMM=F IPFlag=           0 FMFlag=      100000 FMFlg1=           0
         NFxFlg=           0 DoJE=T BraDBF=F KetDBF=T FulRan=T
         wScrn=  0.000000 ICntrl=       500 IOpCl=  0 I1Cent=   200000004 NGrid=           0
         NMat0=    1 NMatS0=      1 NMatT0=    0 NMatD0=    1 NMtDS0=    0 NMtDT0=    0
 Petite list used in FoFCou.
 Requested convergence on RMS density matrix=1.00D-08 within 128 cycles.
 Requested convergence on MAX density matrix=1.00D-06.
 Requested convergence on             energy=1.00D-06.
 No special actions if energy rises.
 Inv3:  Mode=1 IEnd=    28570188.
 Iteration    1 A*A^-1 deviation from unit magnitude is 7.99D-15 for   1447.
 Iteration    1 A*A^-1 deviation from orthogonality  is 3.90D-15 for   3078   3025.
 Iteration    1 A^-1*A deviation from unit magnitude is 6.77D-15 for   1447.
 Iteration    1 A^-1*A deviation from orthogonality  is 4.63D-15 for   1265   1178.
 Error on total polarization charges =  0.01310
 SCF Done:  E(RM062X) =  -864.151131016     A.U. after   14 cycles
            NFock= 14  Conv=0.39D-08     -V/T= 1.9991

 **********************************************************************

            Population analysis using the SCF Density.

 **********************************************************************

 Orbital symmetries:
       Occupied  (A) (A) (A) (A) (A) (A) (A) (A) (A) (A) (A) (A)
                 (A) (A) (A) (A) (A) (A) (A) (A) (A) (A) (A) (A)
                 (A) (A) (A) (A) (A) (A) (A) (A) (A) (A) (A) (A)
                 (A) (A) (A) (A) (A) (A) (A) (A) (A) (A) (A) (A)
                 (A) (A) (A) (A) (A) (A) (A) (A) (A) (A) (A) (A)
                 (A) (A) (A) (A) (A)
       Virtual   (A) (A) (A) (A) (A) (A) (A) (A) (A) (A) (A) (A)
                 (A) (A) (A) (A) (A) (A) (A) (A) (A) (A) (A) (A)
                 (A) (A) (A) (A) (A) (A) (A) (A) (A) (A) (A) (A)
                 (A) (A) (A) (A) (A) (A) (A) (A) (A) (A) (A) (A)
                 (A) (A) (A) (A) (A) (A) (A) (A) (A) (A) (A) (A)
                 (A) (A) (A) (A) (A) (A) (A) (A) (A) (A) (A) (A)
                 (A) (A) (A) (A) (A) (A) (A) (A) (A) (A) (A) (A)
                 (A) (A) (A) (A) (A) (A) (A) (A) (A) (A) (A) (A)
                 (A) (A) (A) (A) (A) (A) (A) (A) (A) (A) (A) (A)
                 (A) (A) (A) (A) (A) (A) (A) (A) (A) (A) (A) (A)
                 (A) (A) (A) (A) (A) (A) (A) (A) (A) (A) (A) (A)
                 (A) (A) (A) (A) (A) (A) (A) (A) (A) (A) (A) (A)
                 (A) (A) (A) (A) (A) (A) (A) (A) (A) (A) (A) (A)
                 (A) (A) (A) (A) (A) (A) (A) (A) (A) (A) (A) (A)
                 (A) (A) (A) (A) (A) (A) (A) (A) (A) (A) (A) (A)
                 (A) (A) (A) (A) (A) (A) (A) (A) (A) (A) (A) (A)
                 (A) (A) (A) (A) (A) (A) (A) (A) (A) (A) (A) (A)
                 (A) (A) (A) (A) (A) (A) (A) (A) (A) (A) (A) (A)
                 (A) (A) (A) (A) (A) (A) (A) (A) (A) (A) (A) (A)
                 (A) (A) (A) (A) (A) (A) (A) (A) (A) (A) (A) (A)
                 (A) (A) (A) (A) (A) (A) (A) (A) (A) (A) (A) (A)
                 (A) (A) (A) (A) (A) (A) (A) (A) (A) (A) (A) (A)
                 (A) (A) (A) (A) (A) (A) (A) (A) (A) (A) (A) (A)
                 (A) (A) (A) (A) (A) (A) (A) (A) (A) (A) (A) (A)
                 (A) (A) (A) (A) (A) (A) (A) (A) (A) (A) (A) (A)
                 (A) (A) (A) (A) (A) (A) (A) (A) (A) (A) (A) (A)
                 (A) (A) (A) (A) (A) (A) (A) (A) (A) (A) (A) (A)
                 (A) (A) (A) (A) (A) (A) (A) (A) (A) (A) (A) (A)
                 (A) (A) (A) (A) (A) (A) (A) (A) (A) (A) (A) (A)
                 (A) (A) (A) (A) (A) (A) (A) (A) (A) (A) (A) (A)
                 (A) (A) (A) (A) (A) (A) (A) (A) (A) (A) (A) (A)
                 (A) (A) (A) (A) (A) (A) (A) (A) (A) (A) (A) (A)
                 (A) (A) (A) (A) (A) (A) (A) (A) (A) (A) (A) (A)
                 (A) (A) (A) (A) (A) (A) (A) (A) (A) (A) (A) (A)
                 (A) (A) (A) (A) (A) (A) (A) (A) (A) (A) (A) (A)
                 (A) (A) (A) (A) (A) (A) (A)
 The electronic state is 1-A.
 Alpha  occ. eigenvalues --  -25.26779 -19.64149 -19.58915 -19.58910 -14.77344
 Alpha  occ. eigenvalues --  -14.77339 -10.62996 -10.62991 -10.62194 -10.61871
 Alpha  occ. eigenvalues --  -10.53635 -10.53630 -10.53234 -10.53223 -10.52863
 Alpha  occ. eigenvalues --  -10.52850 -10.52103  -1.37364  -1.19328  -1.15972
 Alpha  occ. eigenvalues --   -1.15967  -1.03911  -1.03766  -1.03754  -0.90074
 Alpha  occ. eigenvalues --   -0.89229  -0.83348  -0.83341  -0.75306  -0.74582
 Alpha  occ. eigenvalues --   -0.73200  -0.69529  -0.69378  -0.67298  -0.64953
 Alpha  occ. eigenvalues --   -0.64659  -0.60771  -0.60033  -0.59661  -0.58311
 Alpha  occ. eigenvalues --   -0.54576  -0.54386  -0.54290  -0.54113  -0.54072
 Alpha  occ. eigenvalues --   -0.53838  -0.53280  -0.51185  -0.49412  -0.49408
 Alpha  occ. eigenvalues --   -0.48680  -0.47737  -0.47378  -0.47128  -0.46082
 Alpha  occ. eigenvalues --   -0.46077  -0.45170  -0.42817  -0.35319  -0.34587
 Alpha  occ. eigenvalues --   -0.34094  -0.34079  -0.33769  -0.32346  -0.32233
 Alpha virt. eigenvalues --   -0.00893  -0.00869   0.00176   0.00269   0.00766
 Alpha virt. eigenvalues --    0.01559   0.01797   0.02096   0.02202   0.02536
 Alpha virt. eigenvalues --    0.03005   0.03291   0.03665   0.04032   0.04210
 Alpha virt. eigenvalues --    0.05110   0.05305   0.05389   0.05489   0.05962
 Alpha virt. eigenvalues --    0.06666   0.06939   0.07126   0.08314   0.08629
 Alpha virt. eigenvalues --    0.09042   0.09142   0.09449   0.09531   0.10338
 Alpha virt. eigenvalues --    0.10482   0.11168   0.11488   0.12020   0.12183
 Alpha virt. eigenvalues --    0.12276   0.13205   0.13237   0.13572   0.13864
 Alpha virt. eigenvalues --    0.13950   0.14033   0.14429   0.14484   0.14871
 Alpha virt. eigenvalues --    0.15316   0.15363   0.15679   0.15709   0.16516
 Alpha virt. eigenvalues --    0.17068   0.17143   0.17433   0.18179   0.18438
 Alpha virt. eigenvalues --    0.18906   0.19132   0.19426   0.19817   0.20355
 Alpha virt. eigenvalues --    0.20425   0.20720   0.20954   0.21190   0.22180
 Alpha virt. eigenvalues --    0.23029   0.23519   0.24234   0.24402   0.25200
 Alpha virt. eigenvalues --    0.25476   0.25628   0.26181   0.26612   0.26766
 Alpha virt. eigenvalues --    0.27036   0.27392   0.27996   0.28148   0.28687
 Alpha virt. eigenvalues --    0.29637   0.30043   0.30436   0.30778   0.31280
 Alpha virt. eigenvalues --    0.31908   0.32044   0.32591   0.33036   0.33350
 Alpha virt. eigenvalues --    0.33698   0.33983   0.34173   0.34530   0.35189
 Alpha virt. eigenvalues --    0.35767   0.36428   0.37043   0.37188   0.37391
 Alpha virt. eigenvalues --    0.37732   0.39141   0.39577   0.39870   0.40922
 Alpha virt. eigenvalues --    0.41450   0.41857   0.43007   0.44284   0.44423
 Alpha virt. eigenvalues --    0.44458   0.45920   0.46655   0.46980   0.49580
 Alpha virt. eigenvalues --    0.49612   0.50474   0.51534   0.53319   0.54455
 Alpha virt. eigenvalues --    0.54881   0.56113   0.56609   0.58298   0.59578
 Alpha virt. eigenvalues --    0.59979   0.60528   0.60935   0.61085   0.61269
 Alpha virt. eigenvalues --    0.61922   0.62205   0.62692   0.62791   0.63797
 Alpha virt. eigenvalues --    0.64097   0.65709   0.65909   0.67135   0.67733
 Alpha virt. eigenvalues --    0.69124   0.69163   0.69826   0.70230   0.71566
 Alpha virt. eigenvalues --    0.72008   0.73670   0.74123   0.75257   0.75771
 Alpha virt. eigenvalues --    0.76197   0.76802   0.77463   0.78036   0.78098
 Alpha virt. eigenvalues --    0.80136   0.80642   0.80700   0.81089   0.81653
 Alpha virt. eigenvalues --    0.83125   0.84289   0.85577   0.85842   0.87770
 Alpha virt. eigenvalues --    0.88933   0.89802   0.90790   0.91342   0.91741
 Alpha virt. eigenvalues --    0.93976   0.94265   0.94728   0.95242   0.97151
 Alpha virt. eigenvalues --    1.00018   1.00623   1.01346   1.01973   1.02303
 Alpha virt. eigenvalues --    1.03143   1.03354   1.06340   1.08142   1.08555
 Alpha virt. eigenvalues --    1.09000   1.10322   1.10679   1.11435   1.11553
 Alpha virt. eigenvalues --    1.13671   1.14349   1.16263   1.16471   1.17833
 Alpha virt. eigenvalues --    1.18025   1.18741   1.19961   1.21251   1.21759
 Alpha virt. eigenvalues --    1.22064   1.23561   1.24646   1.26202   1.27236
 Alpha virt. eigenvalues --    1.29049   1.29894   1.30387   1.34025   1.35117
 Alpha virt. eigenvalues --    1.36155   1.36777   1.37532   1.40332   1.44006
 Alpha virt. eigenvalues --    1.46886   1.52995   1.53509   1.54458   1.54612
 Alpha virt. eigenvalues --    1.55421   1.57551   1.58710   1.58885   1.59757
 Alpha virt. eigenvalues --    1.61289   1.62566   1.62863   1.63837   1.63970
 Alpha virt. eigenvalues --    1.64262   1.65267   1.65298   1.67589   1.67842
 Alpha virt. eigenvalues --    1.68597   1.68829   1.69488   1.70579   1.71962
 Alpha virt. eigenvalues --    1.72554   1.73432   1.74213   1.75841   1.76276
 Alpha virt. eigenvalues --    1.76658   1.77111   1.78069   1.80411   1.82296
 Alpha virt. eigenvalues --    1.82956   1.83274   1.84069   1.85018   1.85231
 Alpha virt. eigenvalues --    1.85642   1.86785   1.87664   1.87853   1.91267
 Alpha virt. eigenvalues --    1.92745   1.93048   1.94397   1.97037   1.97661
 Alpha virt. eigenvalues --    1.99264   1.99527   2.03340   2.03945   2.04813
 Alpha virt. eigenvalues --    2.05271   2.05541   2.07194   2.09567   2.13679
 Alpha virt. eigenvalues --    2.13950   2.14518   2.15246   2.15956   2.16670
 Alpha virt. eigenvalues --    2.17869   2.18539   2.20489   2.21375   2.26361
 Alpha virt. eigenvalues --    2.26853   2.29796   2.37800   2.40223   2.40357
 Alpha virt. eigenvalues --    2.40978   2.41746   2.43333   2.46389   2.49251
 Alpha virt. eigenvalues --    2.50063   2.52374   2.53650   2.56230   2.56724
 Alpha virt. eigenvalues --    2.57303   2.58497   2.58621   2.60267   2.62600
 Alpha virt. eigenvalues --    2.62911   2.64699   2.65281   2.66251   2.67827
 Alpha virt. eigenvalues --    2.69818   2.70066   2.70751   2.72128   2.72232
 Alpha virt. eigenvalues --    2.74548   2.75677   2.77244   2.77686   2.78593
 Alpha virt. eigenvalues --    2.80048   2.80348   2.81659   2.81750   2.84717
 Alpha virt. eigenvalues --    2.84833   2.86485   2.86575   2.87843   2.89613
 Alpha virt. eigenvalues --    2.90016   2.90748   2.91811   2.94397   2.94781
 Alpha virt. eigenvalues --    2.94860   2.95790   2.96515   2.99116   2.99845
 Alpha virt. eigenvalues --    3.01130   3.01220   3.02721   3.04392   3.05707
 Alpha virt. eigenvalues --    3.07010   3.07129   3.09214   3.11388   3.24623
 Alpha virt. eigenvalues --    3.26682   3.28418   3.29546   3.35920   3.39746
 Alpha virt. eigenvalues --    3.41586   3.42309   3.42436   3.44213   3.45613
 Alpha virt. eigenvalues --    3.55550   3.60579   3.61389   3.63809   3.64433
 Alpha virt. eigenvalues --    3.64844   3.70711   3.71788   3.75109   3.77323
 Alpha virt. eigenvalues --    3.87198   3.87593   3.88112   3.88245   3.96117
 Alpha virt. eigenvalues --    3.96455   4.00816   4.01660   4.03632   4.05114
 Alpha virt. eigenvalues --    4.06028   4.09081   4.10718   4.10889   4.11241
 Alpha virt. eigenvalues --    4.12228   4.13085   4.17141   4.18697   4.25816
 Alpha virt. eigenvalues --    4.26492   4.36465   4.94145   4.94463   4.99396
 Alpha virt. eigenvalues --    5.00920   5.06594   5.06839   5.11924   5.17899
 Alpha virt. eigenvalues --    5.18156   5.26423   5.33610   5.33801   5.85000
 Alpha virt. eigenvalues --    5.87113   5.87206   6.63772   6.67665   6.90574
 Alpha virt. eigenvalues --   23.74369  24.09151  24.09530  24.17787  24.26534
 Alpha virt. eigenvalues --   24.27860  24.27933  24.31296  24.53653  24.56649
 Alpha virt. eigenvalues --   24.72200  35.71351  35.73007  50.07741  50.12021
 Alpha virt. eigenvalues --   50.12113  66.98090
          Condensed to atoms (all electrons):
               1          2          3          4          5          6
     1  C   15.672251  -1.940877  -2.642067  -0.490484  -2.565966  -1.784675
     2  C   -1.940877  18.103752   1.945873  -0.917546  -0.615891 -11.045771
     3  C   -2.642067   1.945873   7.113429   0.441604  -0.319235  -0.667130
     4  C   -0.490484  -0.917546   0.441604   7.650765   0.391931  -0.853412
     5  C   -2.565966  -0.615891  -0.319235   0.391931   7.253138   1.697244
     6  C   -1.784675 -11.045771  -0.667130  -0.853412   1.697244  18.173464
     7  F    0.784220  -0.309172  -0.072032   0.003600  -0.056935  -0.312027
     8  H   -0.241103   0.677464   0.005723  -0.040326   0.018835  -0.126453
     9  H    0.049541  -0.037180   0.374864  -0.123969  -0.006703   0.071780
    10  H    0.024472  -0.029266  -0.059152   0.514970  -0.074647  -0.017046
    11  H    0.052182   0.085035  -0.016059  -0.130565   0.405043  -0.069944
    12  H   -0.230575  -0.144949   0.027292  -0.032973  -0.036014   0.710172
    13  O    0.058885  -0.023070  -0.002472  -0.000430  -0.002773  -0.026218
    14  C   -0.002374   0.001250   0.000861   0.000260   0.000810   0.000701
    15  H   -0.000905  -0.000827  -0.000047  -0.000074   0.000167   0.001173
    16  H    0.000090   0.000281   0.000010   0.000006  -0.000118  -0.000501
    17  H    0.040902   0.007547  -0.056259  -0.006894   0.030466  -0.023674
    18  N   -0.065087   0.010970   0.038070  -0.000839   0.003282   0.020255
    19  C    0.050677  -0.025594  -0.000763   0.005815  -0.014942   0.003426
    20  O    0.002181  -0.000102  -0.000984   0.000164   0.001039  -0.001890
    21  C   -0.006251   0.053740   0.007052   0.003343  -0.011405  -0.048098
    22  H    0.004544   0.003921   0.000600   0.000542  -0.002105  -0.005059
    23  H    0.003683  -0.003705   0.000132   0.000222  -0.000939   0.002540
    24  H   -0.001279  -0.006683  -0.001571   0.002214   0.005146   0.005341
    25  H    0.035242  -0.016567  -0.006627   0.006774  -0.013134   0.009708
    26  H    0.041104  -0.047842   0.009443  -0.004564  -0.044049   0.028067
    27  N   -0.054803   0.037135   0.012195  -0.003399   0.030147  -0.014244
    28  C    0.045167   0.019658  -0.009239   0.006678  -0.004555  -0.036427
    29  O    0.001879  -0.001216   0.000372  -0.000044  -0.000664  -0.000183
    30  C   -0.007115  -0.040600  -0.007492   0.002542   0.006932   0.046688
    31  H    0.006606  -0.003269  -0.001902   0.000529  -0.000404   0.001352
    32  H    0.004049   0.003678  -0.000599   0.000138  -0.000164  -0.005288
    33  H   -0.010249  -0.006778   0.002820   0.003954   0.002437   0.010594
    34  H    0.035590   0.010398  -0.014661   0.006609  -0.006048  -0.016556
               7          8          9         10         11         12
     1  C    0.784220  -0.241103   0.049541   0.024472   0.052182  -0.230575
     2  C   -0.309172   0.677464  -0.037180  -0.029266   0.085035  -0.144949
     3  C   -0.072032   0.005723   0.374864  -0.059152  -0.016059   0.027292
     4  C    0.003600  -0.040326  -0.123969   0.514970  -0.130565  -0.032973
     5  C   -0.056935   0.018835  -0.006703  -0.074647   0.405043  -0.036014
     6  C   -0.312027  -0.126453   0.071780  -0.017046  -0.069944   0.710172
     7  F    9.089438  -0.016173  -0.001265   0.001086  -0.000688  -0.018258
     8  H   -0.016173   0.502995  -0.008803   0.000821   0.002532   0.002421
     9  H   -0.001265  -0.008803   0.469016  -0.013866   0.001422   0.002430
    10  H    0.001086   0.000821  -0.013866   0.484209  -0.015898   0.001978
    11  H   -0.000688   0.002532   0.001422  -0.015898   0.478977  -0.016603
    12  H   -0.018258   0.002421   0.002430   0.001978  -0.016603   0.522820
    13  O    0.000912  -0.000078   0.000034  -0.000004   0.000045  -0.000146
    14  C    0.001431   0.000098  -0.000017   0.000016  -0.000018   0.000108
    15  H   -0.000187  -0.000052   0.000006  -0.000002   0.000005   0.000054
    16  H   -0.000306   0.000083  -0.000002   0.000002  -0.000005   0.000033
    17  H    0.030249  -0.008309   0.001573  -0.001374   0.001316   0.010206
    18  N   -0.019851  -0.000981   0.000406  -0.000017  -0.000151   0.003819
    19  C   -0.001601   0.003114  -0.000481   0.000336  -0.000485  -0.003740
    20  O   -0.000000   0.000172  -0.000038   0.000002   0.000011   0.000006
    21  C    0.000965   0.000089  -0.000320   0.000190  -0.000215  -0.000104
    22  H   -0.000493   0.000541  -0.000045   0.000014   0.000018  -0.000526
    23  H   -0.000352  -0.000351   0.000091   0.000010  -0.000041   0.000138
    24  H    0.000901  -0.003117  -0.000434  -0.000043   0.000097  -0.000720
    25  H   -0.004014   0.000697  -0.000225   0.000020   0.000031  -0.014116
    26  H    0.043228   0.012814   0.000451  -0.001152   0.001740  -0.009823
    27  N   -0.019422   0.004601  -0.000117  -0.000093   0.000600  -0.000575
    28  C   -0.005275  -0.004169  -0.000467   0.000385  -0.000622   0.003340
    29  O    0.000097   0.000022   0.000012  -0.000002  -0.000026   0.000079
    30  C   -0.001041  -0.001218   0.000051   0.000062  -0.000060  -0.001202
    31  H   -0.000894  -0.000444   0.000004   0.000026  -0.000086   0.000742
    32  H    0.000007  -0.000005  -0.000027  -0.000004   0.000158  -0.000903
    33  H    0.000314  -0.000368  -0.000023   0.000079  -0.000890  -0.001590
    34  H   -0.003799  -0.014332   0.000020   0.000030  -0.000206   0.000487
              13         14         15         16         17         18
     1  C    0.058885  -0.002374  -0.000905   0.000090   0.040902  -0.065087
     2  C   -0.023070   0.001250  -0.000827   0.000281   0.007547   0.010970
     3  C   -0.002472   0.000861  -0.000047   0.000010  -0.056259   0.038070
     4  C   -0.000430   0.000260  -0.000074   0.000006  -0.006894  -0.000839
     5  C   -0.002773   0.000810   0.000167  -0.000118   0.030466   0.003282
     6  C   -0.026218   0.000701   0.001173  -0.000501  -0.023674   0.020255
     7  F    0.000912   0.001431  -0.000187  -0.000306   0.030249  -0.019851
     8  H   -0.000078   0.000098  -0.000052   0.000083  -0.008309  -0.000981
     9  H    0.000034  -0.000017   0.000006  -0.000002   0.001573   0.000406
    10  H   -0.000004   0.000016  -0.000002   0.000002  -0.001374  -0.000017
    11  H    0.000045  -0.000018   0.000005  -0.000005   0.001316  -0.000151
    12  H   -0.000146   0.000108   0.000054   0.000033   0.010206   0.003819
    13  O    8.181316   0.237909  -0.092361  -0.092054   0.036927  -0.004854
    14  C    0.237909   4.835857   0.416512   0.416254  -0.014885   0.001836
    15  H   -0.092361   0.416512   0.685780  -0.131816   0.002920   0.000915
    16  H   -0.092054   0.416254  -0.131816   0.685880  -0.001208   0.000498
    17  H    0.036927  -0.014885   0.002920  -0.001208   0.704715   0.334729
    18  N   -0.004854   0.001836   0.000915   0.000498   0.334729   7.194328
    19  C   -0.004933   0.001825  -0.000202  -0.000200  -0.166546   0.138208
    20  O    0.000145  -0.000176  -0.000042  -0.000020   0.004496  -0.178437
    21  C   -0.001950   0.002480  -0.001328   0.000516  -0.073517   0.159827
    22  H    0.000140   0.000568  -0.000555   0.000083  -0.041522  -0.109520
    23  H   -0.000347   0.000799  -0.000180   0.000000  -0.011188  -0.040098
    24  H   -0.000303  -0.000647   0.000491  -0.000211   0.036325  -0.045121
    25  H   -0.000489  -0.000486  -0.000299  -0.000095  -0.032423  -0.260559
    26  H    0.036574  -0.015308  -0.001042   0.002734  -0.073496   0.006677
    27  N   -0.005172   0.002038   0.000567   0.000890   0.006351  -0.000252
    28  C   -0.004687   0.001835  -0.000242  -0.000164   0.011170  -0.000974
    29  O    0.000151  -0.000172  -0.000022  -0.000055   0.000139  -0.000002
    30  C   -0.001253   0.002512   0.000456  -0.001238   0.006743  -0.000725
    31  H    0.000216   0.000540   0.000075  -0.000512   0.000800  -0.000080
    32  H   -0.000554   0.000838  -0.000001  -0.000216   0.000859  -0.000196
    33  H   -0.000376  -0.000689  -0.000209   0.000498  -0.001142   0.000188
    34  H   -0.000504  -0.000553  -0.000099  -0.000299   0.005950  -0.000595
              19         20         21         22         23         24
     1  C    0.050677   0.002181  -0.006251   0.004544   0.003683  -0.001279
     2  C   -0.025594  -0.000102   0.053740   0.003921  -0.003705  -0.006683
     3  C   -0.000763  -0.000984   0.007052   0.000600   0.000132  -0.001571
     4  C    0.005815   0.000164   0.003343   0.000542   0.000222   0.002214
     5  C   -0.014942   0.001039  -0.011405  -0.002105  -0.000939   0.005146
     6  C    0.003426  -0.001890  -0.048098  -0.005059   0.002540   0.005341
     7  F   -0.001601  -0.000000   0.000965  -0.000493  -0.000352   0.000901
     8  H    0.003114   0.000172   0.000089   0.000541  -0.000351  -0.003117
     9  H   -0.000481  -0.000038  -0.000320  -0.000045   0.000091  -0.000434
    10  H    0.000336   0.000002   0.000190   0.000014   0.000010  -0.000043
    11  H   -0.000485   0.000011  -0.000215   0.000018  -0.000041   0.000097
    12  H   -0.003740   0.000006  -0.000104  -0.000526   0.000138  -0.000720
    13  O   -0.004933   0.000145  -0.001950   0.000140  -0.000347  -0.000303
    14  C    0.001825  -0.000176   0.002480   0.000568   0.000799  -0.000647
    15  H   -0.000202  -0.000042  -0.001328  -0.000555  -0.000180   0.000491
    16  H   -0.000200  -0.000020   0.000516   0.000083   0.000000  -0.000211
    17  H   -0.166546   0.004496  -0.073517  -0.041522  -0.011188   0.036325
    18  N    0.138208  -0.178437   0.159827  -0.109520  -0.040098  -0.045121
    19  C    4.978982   0.475012  -0.031271   0.043028  -0.005545  -0.015017
    20  O    0.475012   8.229525  -0.035744   0.038278  -0.002828  -0.004103
    21  C   -0.031271  -0.035744   5.078180   0.450063   0.427384   0.394386
    22  H    0.043028   0.038278   0.450063   0.479222  -0.026280  -0.029418
    23  H   -0.005545  -0.002828   0.427384  -0.026280   0.552205  -0.064266
    24  H   -0.015017  -0.004103   0.394386  -0.029418  -0.064266   0.570152
    25  H    0.439462  -0.032283  -0.006070   0.017140  -0.002480  -0.002912
    26  H    0.011316   0.000102   0.006479   0.000855   0.000747  -0.000970
    27  N   -0.000942  -0.000002  -0.000705  -0.000077  -0.000202   0.000184
    28  C   -0.001382  -0.000003  -0.000531  -0.000047   0.000023  -0.000003
    29  O   -0.000005  -0.000000  -0.000002  -0.000000  -0.000003   0.000002
    30  C   -0.000614  -0.000001  -0.000531  -0.000030  -0.000052   0.000055
    31  H   -0.000047   0.000000  -0.000025   0.000000  -0.000003  -0.000001
    32  H    0.000012  -0.000003  -0.000068  -0.000004  -0.000018   0.000015
    33  H    0.000035   0.000002   0.000072   0.000001   0.000011  -0.000005
    34  H   -0.000594  -0.000000  -0.000025   0.000003  -0.000222   0.000102
              25         26         27         28         29         30
     1  C    0.035242   0.041104  -0.054803   0.045167   0.001879  -0.007115
     2  C   -0.016567  -0.047842   0.037135   0.019658  -0.001216  -0.040600
     3  C   -0.006627   0.009443   0.012195  -0.009239   0.000372  -0.007492
     4  C    0.006774  -0.004564  -0.003399   0.006678  -0.000044   0.002542
     5  C   -0.013134  -0.044049   0.030147  -0.004555  -0.000664   0.006932
     6  C    0.009708   0.028067  -0.014244  -0.036427  -0.000183   0.046688
     7  F   -0.004014   0.043228  -0.019422  -0.005275   0.000097  -0.001041
     8  H    0.000697   0.012814   0.004601  -0.004169   0.000022  -0.001218
     9  H   -0.000225   0.000451  -0.000117  -0.000467   0.000012   0.000051
    10  H    0.000020  -0.001152  -0.000093   0.000385  -0.000002   0.000062
    11  H    0.000031   0.001740   0.000600  -0.000622  -0.000026  -0.000060
    12  H   -0.014116  -0.009823  -0.000575   0.003340   0.000079  -0.001202
    13  O   -0.000489   0.036574  -0.005172  -0.004687   0.000151  -0.001253
    14  C   -0.000486  -0.015308   0.002038   0.001835  -0.000172   0.002512
    15  H   -0.000299  -0.001042   0.000567  -0.000242  -0.000022   0.000456
    16  H   -0.000095   0.002734   0.000890  -0.000164  -0.000055  -0.001238
    17  H   -0.032423  -0.073496   0.006351   0.011170   0.000139   0.006743
    18  N   -0.260559   0.006677  -0.000252  -0.000974  -0.000002  -0.000725
    19  C    0.439462   0.011316  -0.000942  -0.001382  -0.000005  -0.000614
    20  O   -0.032283   0.000102  -0.000002  -0.000003  -0.000000  -0.000001
    21  C   -0.006070   0.006479  -0.000705  -0.000531  -0.000002  -0.000531
    22  H    0.017140   0.000855  -0.000077  -0.000047  -0.000000  -0.000030
    23  H   -0.002480   0.000747  -0.000202   0.000023  -0.000003  -0.000052
    24  H   -0.002912  -0.000970   0.000184  -0.000003   0.000002   0.000055
    25  H    0.746247   0.005580  -0.000589  -0.000564   0.000000   0.000017
    26  H    0.005580   0.711062   0.326391  -0.165162   0.005162  -0.069803
    27  N   -0.000589   0.326391   7.193912   0.141769  -0.178416   0.164903
    28  C   -0.000564  -0.165162   0.141769   4.974359   0.474308  -0.033722
    29  O    0.000000   0.005162  -0.178416   0.474308   8.230243  -0.036283
    30  C    0.000017  -0.069803   0.164903  -0.033722  -0.036283   5.072056
    31  H    0.000005  -0.042506  -0.108906   0.043146   0.038074   0.449829
    32  H   -0.000219  -0.010067  -0.041741  -0.006223  -0.002706   0.428042
    33  H    0.000097   0.034366  -0.045956  -0.013757  -0.004146   0.395268
    34  H   -0.000170  -0.031739  -0.259842   0.439259  -0.031981  -0.006361
              31         32         33         34
     1  C    0.006606   0.004049  -0.010249   0.035590
     2  C   -0.003269   0.003678  -0.006778   0.010398
     3  C   -0.001902  -0.000599   0.002820  -0.014661
     4  C    0.000529   0.000138   0.003954   0.006609
     5  C   -0.000404  -0.000164   0.002437  -0.006048
     6  C    0.001352  -0.005288   0.010594  -0.016556
     7  F   -0.000894   0.000007   0.000314  -0.003799
     8  H   -0.000444  -0.000005  -0.000368  -0.014332
     9  H    0.000004  -0.000027  -0.000023   0.000020
    10  H    0.000026  -0.000004   0.000079   0.000030
    11  H   -0.000086   0.000158  -0.000890  -0.000206
    12  H    0.000742  -0.000903  -0.001590   0.000487
    13  O    0.000216  -0.000554  -0.000376  -0.000504
    14  C    0.000540   0.000838  -0.000689  -0.000553
    15  H    0.000075  -0.000001  -0.000209  -0.000099
    16  H   -0.000512  -0.000216   0.000498  -0.000299
    17  H    0.000800   0.000859  -0.001142   0.005950
    18  N   -0.000080  -0.000196   0.000188  -0.000595
    19  C   -0.000047   0.000012   0.000035  -0.000594
    20  O    0.000000  -0.000003   0.000002  -0.000000
    21  C   -0.000025  -0.000068   0.000072  -0.000025
    22  H    0.000000  -0.000004   0.000001   0.000003
    23  H   -0.000003  -0.000018   0.000011  -0.000222
    24  H   -0.000001   0.000015  -0.000005   0.000102
    25  H    0.000005  -0.000219   0.000097  -0.000170
    26  H   -0.042506  -0.010067   0.034366  -0.031739
    27  N   -0.108906  -0.041741  -0.045956  -0.259842
    28  C    0.043146  -0.006223  -0.013757   0.439259
    29  O    0.038074  -0.002706  -0.004146  -0.031981
    30  C    0.449829   0.428042   0.395268  -0.006361
    31  H    0.479785  -0.026601  -0.029077   0.017013
    32  H   -0.026601   0.553076  -0.064486  -0.002377
    33  H   -0.029077  -0.064486   0.570374  -0.002882
    34  H    0.017013  -0.002377  -0.002882   0.745300
 Mulliken charges:
               1
     1  C   -0.869455
     2  C    0.256203
     3  C   -0.102052
     4  C   -0.437140
     5  C   -0.069927
     6  C    0.272088
     7  F   -0.112662
     8  H    0.233258
     9  H    0.222282
    10  H    0.183856
    11  H    0.223353
    12  H    0.226693
    13  O   -0.288227
    14  C    0.107987
    15  H    0.121369
    16  H    0.121162
    17  H    0.238056
    18  N   -0.185671
    19  C    0.123655
    20  O   -0.494477
    21  C   -0.366607
    22  H    0.176123
    23  H    0.171116
    24  H    0.161414
    25  H    0.133299
    26  H    0.232630
    27  N   -0.186228
    28  C    0.127117
    29  O   -0.494613
    30  C   -0.366813
    31  H    0.176014
    32  H    0.171597
    33  H    0.161514
    34  H    0.133084
 Sum of Mulliken charges =  -0.00000
 Mulliken charges with hydrogens summed into heavy atoms:
               1
     1  C   -0.869455
     2  C    0.489461
     3  C    0.120230
     4  C   -0.253284
     5  C    0.153426
     6  C    0.498781
     7  F   -0.112662
    13  O   -0.288227
    14  C    0.350518
    18  N    0.052385
    19  C    0.256954
    20  O   -0.494477
    21  C    0.142047
    27  N    0.046402
    28  C    0.260201
    29  O   -0.494613
    30  C    0.142313
 Electronic spatial extent (au):  <R**2>=           6326.1630
 Charge=             -0.0000 electrons
 Dipole moment (field-independent basis, Debye):
    X=              0.0281    Y=              1.5050    Z=             -0.0143  Tot=              1.5053
 Quadrupole moment (field-independent basis, Debye-Ang):
   XX=           -177.5728   YY=            -71.5196   ZZ=            -89.2828
   XY=             -0.0739   XZ=            -20.4159   YZ=             -0.0146
 Traceless Quadrupole moment (field-independent basis, Debye-Ang):
   XX=            -64.7811   YY=             41.2722   ZZ=             23.5089
   XY=             -0.0739   XZ=            -20.4159   YZ=             -0.0146
 Octapole moment (field-independent basis, Debye-Ang**2):
  XXX=              0.2369  YYY=            -83.2237  ZZZ=             -0.0928  XYY=              0.3114
  XXY=             68.7878  XXZ=             -0.4955  XZZ=             -0.0345  YZZ=              2.6538
  YYZ=              0.0053  XYZ=             24.7850
 Hexadecapole moment (field-independent basis, Debye-Ang**3):
 XXXX=          -7380.0475 YYYY=          -2054.2265 ZZZZ=           -615.4689 XXXY=             -2.2393
 XXXZ=           -628.6847 YYYX=             -1.1126 YYYZ=              0.0814 ZZZX=            -24.3000
 ZZZY=             -0.0370 XXYY=          -1374.9208 XXZZ=           -900.8539 YYZZ=           -532.5936
 XXYZ=             -0.0647 YYXZ=            -21.3518 ZZXY=              0.2774
 N-N= 1.168042158603D+03 E-N=-4.361312948630D+03  KE= 8.649505998258D+02
 D1PCM: PCM CHGder 1st derivatives, ID1Alg=3 FixD1E=F DoIter=F DoCFld=F I1PDM=0.
 Calling FoFJK, ICntrl=      2127 FMM=F ISym2X=0 I1Cent= 0 IOpClX= 0 NMat=1 NMatS=1 NMatT=0.
 ***** Axes restored to original set *****
 -------------------------------------------------------------------
 Center     Atomic                   Forces (Hartrees/Bohr)
 Number     Number              X              Y              Z
 -------------------------------------------------------------------
      1        6          -0.082994162   -0.003022568   -0.047866549
      2        6          -0.054166233    0.001000569    0.014891223
      3        6           0.002776515   -0.000184945    0.037333649
      4        6           0.039025303    0.000680292    0.022480993
      5        6           0.033312883   -0.002657972   -0.016337614
      6        6          -0.013744363    0.003277357   -0.055251456
      7        9           0.020440914    0.000350247    0.011807614
      8        1          -0.065694882    0.000442755    0.036175972
      9        1          -0.001719290   -0.000167569    0.073733964
     10        1           0.064207061    0.000615500    0.037079588
     11        1           0.062976620    0.000430568   -0.038378428
     12        1          -0.001553290   -0.000777740   -0.074012505
     13        8           0.015792674    0.000001986    0.009089830
     14        6           0.061803773   -0.000001372    0.035917942
     15        1          -0.039186202    0.071671979   -0.022724107
     16        1          -0.039182496   -0.071670894   -0.022729196
     17        1          -0.002020498   -0.009151576    0.001383874
     18        7          -0.003602402    0.012608051    0.004475002
     19        6          -0.036774530    0.056464110    0.043991673
     20        8           0.004807278   -0.005154612   -0.006738314
     21        6           0.031094279   -0.043952375   -0.038508831
     22        1          -0.000135999    0.070595466   -0.024552794
     23        1          -0.073025319   -0.029075463    0.005648721
     24        1           0.037025527   -0.006545797    0.069298652
     25        1           0.041539779   -0.046647577   -0.055551181
     26        1           0.000200655    0.009157224   -0.002421057
     27        7           0.002083314   -0.012597260   -0.005377489
     28        6           0.019854198   -0.056247461   -0.053999614
     29        8          -0.003450638    0.005108982    0.007542836
     30        6          -0.017904214    0.043787274    0.046303529
     31        1          -0.021217449   -0.070663838    0.011938669
     32        1          -0.031630681    0.029219872   -0.066000128
     33        1           0.078518003    0.006695089   -0.002512191
     34        1          -0.027456131    0.046411700    0.063867720
 -------------------------------------------------------------------
 Cartesian Forces:  Max     0.082994162 RMS     0.037145287
 -----------------------------------------------------------------------------------------------
                       Internal Coordinate Forces (Hartree/Bohr or radian)
  Cent   Atom   N1       Length/X         N2         Alpha/Y        N3         Beta/Z          J
 -----------------------------------------------------------------------------------------------
      1  C 
      2  C        1   0.166979(     1)
      3  C        2   0.231663(     2)      1   0.492123(    34)
      4  C        3   0.170369(     3)      2   0.488645(    35)      1  -0.006016(    66)     0
      5  C        4   0.054716(     4)      3   0.233245(    36)      2  -0.004739(    67)     0
      6  C        1   0.051278(     5)      2   0.296719(    37)      3  -0.003715(    68)     0
      7  F        1  -0.021186(     6)      2   0.000009(    38)      3   0.000564(    69)     0
      8  H        2   0.074981(     7)      1  -0.002869(    39)      6  -0.000725(    70)     0
      9  H        3   0.073734(     8)      2  -0.003249(    40)      1   0.000274(    71)     0
     10  H        4   0.074145(     9)      3  -0.000016(    41)      2  -0.001007(    72)     0
     11  H        5   0.073729(    10)      4   0.003304(    42)      3  -0.000705(    73)     0
     12  H        6   0.073944(    11)      1  -0.002664(    43)      2  -0.005486(    74)     0
     13  O        1   0.000892(    12)      2   0.000003(    44)      3   0.000006(    75)     0
     14  C       13   0.019113(    13)      1  -0.000005(    45)      2  -0.000010(    76)     0
     15  H       14   0.084719(    14)     13   0.006413(    46)      1   0.000104(    77)     0
     16  H       14   0.084718(    15)     13   0.006413(    47)      1  -0.000114(    78)     0
     17  H        7  -0.000634(    16)      1   0.003371(    48)      2  -0.000170(    79)     0
     18  N       17   0.008198(    17)      7  -0.000101(    49)      1  -0.000037(    80)     0
     19  C       18   0.020302(    18)     17  -0.027770(    50)      7  -0.000033(    81)     0
     20  O       19  -0.004657(    19)     18   0.019912(    51)     17  -0.000220(    82)     0
     21  C       18   0.006036(    20)     17  -0.031689(    52)     19  -0.000168(    83)     0
     22  H       21   0.074439(    21)     18  -0.012737(    53)     17  -0.000093(    84)     0
     23  H       21   0.078764(    22)     18  -0.004731(    54)     17   0.000091(    85)     0
     24  H       21   0.078806(    23)     18  -0.004476(    55)     17  -0.000012(    86)     0
     25  H       19   0.083504(    24)     18   0.007219(    56)     17   0.000045(    87)     0
     26  H        7  -0.000650(    25)      1   0.003263(    57)      2  -0.000173(    88)     0
     27  N       26   0.008184(    26)      7   0.000101(    58)      1  -0.000018(    89)     0
     28  C       27   0.020289(    27)     26  -0.027775(    59)      7  -0.000021(    90)     0
     29  O       28  -0.004639(    28)     27   0.019910(    60)     26  -0.000226(    91)     0
     30  C       27   0.006023(    29)     26  -0.031725(    61)     28  -0.000151(    92)     0
     31  H       30   0.074435(    30)     27  -0.012744(    62)     26  -0.000095(    93)     0
     32  H       30   0.078766(    31)     27  -0.004732(    63)     26   0.000094(    94)     0
     33  H       30   0.078807(    32)     27  -0.004491(    64)     26  -0.000016(    95)     0
     34  H       28   0.083501(    33)     27   0.007213(    65)     26   0.000047(    96)     0
 -----------------------------------------------------------------------------------------------
 Internal  Forces:  Max     0.492122992 RMS     0.093445004

 GradGradGradGradGradGradGradGradGradGradGradGradGradGradGradGradGradGrad
 Berny optimization.
 Search for a local minimum.
 Step number   1 out of a maximum of   43
 All quantities printed in internal units (Hartrees-Bohrs-Radians)
 Second derivative matrix not updated -- first step.
 ITU=  0
     Eigenvalues ---    0.00539   0.03554   0.03554   0.38245   0.38245
     Eigenvalues ---    0.45620   0.47512   0.47688   0.47688   0.47688
     Eigenvalues ---    0.47688   0.47688   0.47688   0.47688   0.47688
     Eigenvalues ---    0.47688   0.47688   0.47688   0.47688   0.47688
     Eigenvalues ---    0.47688   0.47688   0.47688   0.59506   0.59506
     Eigenvalues ---    0.67193   0.67193   0.67196   0.91086   0.91086
     Eigenvalues ---    1.04823   1.07882   2.01215
 RFO step:  Lambda=-2.22772498D-01 EMin= 5.39045724D-03
 Linear search not attempted -- first point.
 Maximum step size (   0.300) exceeded in Quadratic search.
    -- Step size scaled by   0.575
 Variable       Old X    -DE/DX   Delta X   Delta X   Delta X     New X
                                 (Linear)    (Quad)   (Total)
    B1        2.45664   0.16698   0.00000   0.07421   0.07421   2.53085
    B2        2.45664   0.23166   0.00000   0.08194   0.08194   2.53858
    B3        2.45664   0.17037   0.00000   0.07566   0.07566   2.53231
    B4        2.45664   0.05472   0.00000   0.06829   0.06829   2.52494
    B5        2.45664   0.05128   0.00000   0.06676   0.06676   2.52341
    B6        2.64562  -0.02119   0.00000  -0.01794  -0.01794   2.62767
    B7        1.88973   0.07498   0.00000   0.06163   0.06163   1.95136
    B8        1.88973   0.07373   0.00000   0.06061   0.06061   1.95033
    B9        1.88973   0.07414   0.00000   0.06094   0.06094   1.95067
   B10        1.88973   0.07373   0.00000   0.06060   0.06060   1.95033
   B11        1.89163   0.07394   0.00000   0.06093   0.06093   1.95256
   B12        7.93685   0.00089   0.00000   0.00225   0.00225   7.93910
   B13        2.26767   0.01911   0.00000   0.00865   0.00865   2.27632
   B14        1.88973   0.08472   0.00000   0.06964   0.06964   1.95936
   B15        1.88973   0.08472   0.00000   0.06963   0.06963   1.95936
   B16        4.00622  -0.00063   0.00000  -0.00141  -0.00141   4.00481
   B17        1.88973   0.00820   0.00000   0.00674   0.00674   1.89646
   B18        2.51334   0.02030   0.00000   0.01428   0.01428   2.52761
   B19        2.32436  -0.00466   0.00000  -0.00236  -0.00236   2.32200
   B20        2.74010   0.00604   0.00000   0.00574   0.00574   2.74584
   B21        1.88973   0.07444   0.00000   0.06119   0.06119   1.95091
   B22        1.88973   0.07876   0.00000   0.06474   0.06474   1.95447
   B23        1.88973   0.07881   0.00000   0.06478   0.06478   1.95450
   B24        1.88973   0.08350   0.00000   0.06864   0.06864   1.95836
   B25        4.00622  -0.00065   0.00000  -0.00145  -0.00145   4.00477
   B26        1.88973   0.00818   0.00000   0.00673   0.00673   1.89645
   B27        2.51334   0.02029   0.00000   0.01427   0.01427   2.52760
   B28        2.32436  -0.00464   0.00000  -0.00235  -0.00235   2.32201
   B29        2.74010   0.00602   0.00000   0.00572   0.00572   2.74583
   B30        1.88973   0.07444   0.00000   0.06118   0.06118   1.95091
   B31        1.88973   0.07877   0.00000   0.06474   0.06474   1.95447
   B32        1.88973   0.07881   0.00000   0.06478   0.06478   1.95450
   B33        1.88973   0.08350   0.00000   0.06863   0.06863   1.95836
         Item               Value     Threshold  Converged?
 Maximum Force            0.231663     0.000450     NO 
 RMS     Force            0.079726     0.000300     NO 
 Maximum Displacement     0.081938     0.001800     NO 
 RMS     Displacement     0.052223     0.001200     NO 
 Predicted change in Energy=-1.013004D-01
 GradGradGradGradGradGradGradGradGradGradGradGradGradGradGradGradGradGrad

 ---------------------------------------------------------------------------------------------------
                            Z-MATRIX (ANGSTROMS AND DEGREES)
   CD    Cent   Atom    N1       Length/X        N2       Alpha/Y        N3        Beta/Z          J
 ---------------------------------------------------------------------------------------------------
      1      1  C 
      2      2  C        1   1.339268(     1)
      3      3  C        2   1.343360(     2)      1  120.000(    34)
      4      4  C        3   1.340039(     3)      2  120.000(    35)      1    0.000(    66)      0
      5      5  C        4   1.336139(     4)      3  120.000(    36)      2    0.000(    67)      0
      6      6  C        1   1.335329(     5)      2  119.978(    37)      3    1.717(    68)      0
      7      7  F        1   1.390504(     6)      2  120.000(    38)      3 -180.000(    69)      0
      8      8  H        2   1.032614(     7)      1  120.000(    39)      6 -178.283(    70)      0
      9      9  H        3   1.032072(     8)      2  120.000(    40)      1  180.000(    71)      0
     10     10  H        4   1.032250(     9)      3  120.000(    41)      2  180.000(    72)      0
     11     11  H        5   1.032069(    10)      4  120.000(    42)      3  180.000(    73)      0
     12     12  H        6   1.033251(    11)      1  119.916(    43)      2 -177.772(    74)      0
     13     13  O        1   4.201189(    12)      2  120.000(    44)      3 -180.000(    75)      0
     14     14  C       13   1.204576(    13)      1  179.900(    45)      2  180.000(    76)      0
     15     15  H       14   1.036850(    14)     13  120.000(    46)      1  -90.045(    77)      0
     16     16  H       14   1.036849(    15)     13  120.000(    47)      1   90.045(    78)      0
     17     17  H        7   2.119252(    16)      1  100.000(    48)      2   90.000(    79)      0
     18     18  N       17   1.003566(    17)      7  179.900(    49)      1   90.000(    80)      0
     19     19  C       18   1.337555(    18)     17  119.500(    50)      7    0.000(    81)      0
     20     20  O       19   1.228750(    19)     18  123.200(    51)     17 -180.000(    82)      0
     21     21  C       18   1.453035(    20)     17  121.900(    52)     19 -180.000(    83)      0
     22     22  H       21   1.032378(    21)     18  110.700(    53)     17 -180.000(    84)      0
     23     23  H       21   1.034259(    22)     18  110.700(    54)     17  -60.000(    85)      0
     24     24  H       21   1.034278(    23)     18  110.700(    55)     17   60.000(    86)      0
     25     25  H       19   1.036321(    24)     18  113.467(    56)     17    0.000(    87)      0
     26     26  H        7   2.119234(    25)      1  100.000(    57)      2  -90.000(    88)      0
     27     27  N       26   1.003560(    26)      7  179.900(    58)      1  -90.000(    89)      0
     28     28  C       27   1.337550(    27)     26  119.500(    59)      7  180.000(    90)      0
     29     29  O       28   1.228755(    28)     27  123.200(    60)     26 -180.000(    91)      0
     30     30  C       27   1.453029(    29)     26  121.900(    61)     28 -180.000(    92)      0
     31     31  H       30   1.032377(    30)     27  110.700(    62)     26  180.000(    93)      0
     32     32  H       30   1.034260(    31)     27  110.700(    63)     26  -60.000(    94)      0
     33     33  H       30   1.034278(    32)     27  110.700(    64)     26   60.000(    95)      0
     34     34  H       28   1.036320(    33)     27  113.467(    65)     26    0.000(    96)      0
 ---------------------------------------------------------------------------------------------------
                         Z-Matrix orientation:                         
 ---------------------------------------------------------------------
 Center     Atomic      Atomic             Coordinates (Angstroms)
 Number     Number       Type             X           Y           Z
 ---------------------------------------------------------------------
      1          6           0        0.000000    0.000000    0.000000
      2          6           0        0.000000    0.000000    1.339268
      3          6           0        1.163384    0.000000    2.010948
      4          6           0        2.323892    0.000000    1.340929
      5          6           0        2.323892    0.000000    0.004789
      6          6           0        1.156169   -0.034662   -0.667214
      7          9           0       -1.204212    0.000000   -0.695252
      8          1           0       -0.894270    0.000000    1.855575
      9          1           0        1.163384    0.000000    3.043020
     10          1           0        3.217846    0.000000    1.857054
     11          1           0        3.217690    0.000000   -0.511245
     12          1           0        1.156430    0.000170   -1.699878
     13          8           0       -3.638337    0.000000   -2.100595
     14          6           0       -4.680478    0.000000   -2.704703
     15          1           0       -5.129346    0.897938   -2.964089
     16          1           0       -5.129346   -0.897938   -2.964089
     17          1           0       -1.522913    2.087056   -0.879254
     18          7           0       -1.672957    3.075374   -0.967905
     19          6           0       -1.189052    3.722010   -2.034090
     20          8           0       -1.332713    4.929432   -2.211065
     21          6           0       -2.404873    3.833668    0.032396
     22          1           0       -2.455971    4.830653   -0.230690
     23          1           0       -3.370098    3.474953    0.129122
     24          1           0       -1.940900    3.765941    0.954282
     25          1           0       -0.681876    3.105924   -2.695280
     26          1           0       -1.522910   -2.087038   -0.879253
     27          7           0       -1.672953   -3.075350   -0.967902
     28          6           0       -2.353804   -3.725984   -0.018083
     29          8           0       -2.576801   -4.933684   -0.057741
     30          6           0       -1.170640   -3.829399   -2.103853
     31          1           0       -1.422366   -4.827072   -2.019684
     32          1           0       -1.569569   -3.468738   -2.987297
     33          1           0       -0.140359   -3.759727   -2.162154
     34          1           0       -2.674346   -3.112743    0.753374
 ---------------------------------------------------------------------
                    Distance matrix (angstroms):
                    1          2          3          4          5
     1  C    0.000000
     2  C    1.339268   0.000000
     3  C    2.323225   1.343360   0.000000
     4  C    2.683013   2.323892   1.340039   0.000000
     5  C    2.323896   2.679796   2.317639   1.336139   0.000000
     6  C    1.335329   2.316009   2.678396   2.323234   1.347727
     7  F    1.390504   2.364191   3.595696   4.073517   3.596884
     8  H    2.059825   1.032614   2.063511   3.259053   3.712408
     9  H    3.257826   2.063063   1.032072   2.060071   3.252326
[...]
     6  C   -1.063672  -5.722288  -0.134834  -0.557553   1.061541  12.080063
     7  F    0.606101  -0.258514  -0.042014   0.003423  -0.035437  -0.254259
     8  H   -0.144046   0.526364  -0.022930  -0.019672   0.012647  -0.062419
     9  H    0.025550  -0.020641   0.356317  -0.085074  -0.001773   0.038473
    10  H    0.022144  -0.012246  -0.056568   0.456107  -0.060607  -0.009995
    11  H    0.026981   0.041960  -0.004377  -0.087549   0.364800  -0.031060
    12  H   -0.140120  -0.069957   0.014388  -0.015966  -0.034250   0.538001
    13  O    0.041866  -0.017006  -0.001313  -0.000155  -0.001549  -0.019030
    14  C   -0.003813   0.001614   0.000634   0.000083   0.000613   0.001447
    15  H   -0.000743  -0.000149   0.000009  -0.000032   0.000047   0.000362
    16  H   -0.000255  -0.000033  -0.000010  -0.000002  -0.000017   0.000012
    17  H    0.033705   0.004127  -0.033486   0.006900   0.013687  -0.029689
    18  N   -0.057251   0.003631   0.025549  -0.000964   0.008060   0.030151
    19  C    0.050226  -0.018335  -0.000926   0.003014  -0.013477  -0.001798
    20  O    0.001255  -0.000150  -0.000543   0.000036   0.000733  -0.001070
    21  C   -0.003476   0.038843   0.000839   0.001094  -0.005849  -0.033669
    22  H    0.003959   0.001804   0.000026   0.000193  -0.001168  -0.002647
    23  H    0.002889  -0.003416   0.000256   0.000091  -0.000731   0.002437
    24  H   -0.000693  -0.000557  -0.001186   0.001938   0.003120   0.000819
    25  H    0.031066  -0.008997  -0.003776   0.003350  -0.011072   0.002741
    26  H    0.032706  -0.045299   0.001931   0.008441  -0.028370   0.016756
    27  N   -0.051106   0.038169   0.013011  -0.002903   0.022319  -0.009785
    28  C    0.044421   0.012211  -0.009020   0.003646  -0.003068  -0.027177
    29  O    0.001181  -0.000749   0.000300  -0.000088  -0.000393  -0.000238
    30  C   -0.004532  -0.028235  -0.003486   0.000844   0.000923   0.033988
    31  H    0.005168  -0.001766  -0.001098   0.000171  -0.000401   0.000512
    32  H    0.004414   0.003898  -0.000501   0.000052  -0.000381  -0.005980
    33  H   -0.008081  -0.006986   0.001900   0.002924   0.002183   0.011520
    34  H    0.029853   0.004731  -0.011183   0.003421  -0.003747  -0.009925
               7          8          9         10         11         12
     1  C    0.606101  -0.144046   0.025550   0.022144   0.026981  -0.140120
     2  C   -0.258514   0.526364  -0.020641  -0.012246   0.041960  -0.069957
     3  C   -0.042014  -0.022930   0.356317  -0.056568  -0.004377   0.014388
     4  C    0.003423  -0.019672  -0.085074   0.456107  -0.087549  -0.015966
     5  C   -0.035437   0.012647  -0.001773  -0.060607   0.364800  -0.034250
     6  C   -0.254259  -0.062419   0.038473  -0.009995  -0.031060   0.538001
     7  F    9.031455  -0.008992  -0.001111   0.000594  -0.000915  -0.009605
     8  H   -0.008992   0.473898  -0.002805   0.001025   0.001358   0.001487
     9  H   -0.001111  -0.002805   0.446355  -0.007603   0.001061   0.001363
    10  H    0.000594   0.001025  -0.007603   0.463221  -0.008044   0.001276
    11  H   -0.000915   0.001358   0.001061  -0.008044   0.449729  -0.005312
    12  H   -0.009605   0.001487   0.001363   0.001276  -0.005312   0.481379
    13  O    0.001516  -0.000054   0.000017  -0.000002   0.000021  -0.000062
    14  C    0.000870  -0.000030  -0.000005   0.000007  -0.000006  -0.000011
    15  H   -0.000191   0.000023   0.000002  -0.000001   0.000002   0.000008
    16  H   -0.000253   0.000002   0.000001   0.000000  -0.000001   0.000048
    17  H    0.030240  -0.005124   0.000659  -0.000715   0.000393   0.006538
    18  N   -0.018552  -0.000898   0.000224  -0.000024  -0.000140   0.002940
    19  C   -0.001752   0.002171  -0.000242   0.000214  -0.000297  -0.003577
    20  O   -0.000022   0.000085  -0.000021  -0.000001   0.000019   0.000070
    21  C    0.001687  -0.000856  -0.000071   0.000074  -0.000080  -0.000021
    22  H   -0.000437   0.000377  -0.000011   0.000010   0.000014  -0.000309
    23  H   -0.000280  -0.000454   0.000078   0.000004  -0.000019   0.000107
    24  H    0.000969  -0.002540  -0.000523  -0.000006   0.000028  -0.000498
    25  H   -0.003843   0.000322  -0.000114  -0.000004   0.000073  -0.011009
    26  H    0.040249   0.007850  -0.000002  -0.000610   0.000793  -0.005853
    27  N   -0.018032   0.003428  -0.000107  -0.000085   0.000354  -0.000668
    28  C   -0.004326  -0.004110  -0.000261   0.000227  -0.000289   0.002094
    29  O    0.000054   0.000092   0.000020  -0.000003  -0.000016   0.000035
    30  C    0.000445  -0.000717   0.000043   0.000029   0.000010  -0.001733
    31  H   -0.000681  -0.000263   0.000011   0.000013  -0.000019   0.000454
    32  H   -0.000163   0.000058  -0.000020   0.000002   0.000091  -0.000671
    33  H    0.000579  -0.000367  -0.000006   0.000030  -0.000709  -0.001780
    34  H   -0.003706  -0.011270   0.000068   0.000006  -0.000111   0.000238
              13         14         15         16         17         18
     1  C    0.041866  -0.003813  -0.000743  -0.000255   0.033705  -0.057251
     2  C   -0.017006   0.001614  -0.000149  -0.000033   0.004127   0.003631
     3  C   -0.001313   0.000634   0.000009  -0.000010  -0.033486   0.025549
     4  C   -0.000155   0.000083  -0.000032  -0.000002   0.006900  -0.000964
     5  C   -0.001549   0.000613   0.000047  -0.000017   0.013687   0.008060
     6  C   -0.019030   0.001447   0.000362   0.000012  -0.029689   0.030151
     7  F    0.001516   0.000870  -0.000191  -0.000253   0.030240  -0.018552
     8  H   -0.000054  -0.000030   0.000023   0.000002  -0.005124  -0.000898
     9  H    0.000017  -0.000005   0.000002   0.000001   0.000659   0.000224
    10  H   -0.000002   0.000007  -0.000001   0.000000  -0.000715  -0.000024
    11  H    0.000021  -0.000006   0.000002  -0.000001   0.000393  -0.000140
    12  H   -0.000062  -0.000011   0.000008   0.000048   0.006538   0.002940
    13  O    8.172000   0.206173  -0.091141  -0.090905   0.035980  -0.005462
    14  C    0.206173   4.958490   0.405230   0.405043  -0.014074   0.002079
    15  H   -0.091141   0.405230   0.658035  -0.103220   0.001213   0.001231
    16  H   -0.090905   0.405043  -0.103220   0.658121  -0.000408   0.000226
    17  H    0.035980  -0.014074   0.001213  -0.000408   0.694238   0.302723
    18  N   -0.005462   0.002079   0.001231   0.000226   0.302723   7.197562
    19  C   -0.004604   0.001038  -0.000075  -0.000193  -0.140555   0.125735
    20  O    0.000089  -0.000163  -0.000006  -0.000018   0.006616  -0.164562
    21  C   -0.002036   0.002830  -0.001061   0.000399  -0.085198   0.109293
    22  H    0.000174   0.000432  -0.000463   0.000063  -0.035764  -0.107349
    23  H   -0.000278   0.000484  -0.000117  -0.000084  -0.010440  -0.042655
    24  H   -0.000225  -0.000465   0.000304  -0.000123   0.030630  -0.047530
    25  H   -0.000625  -0.000694   0.000179  -0.000172  -0.010649  -0.226197
    26  H    0.035695  -0.014615  -0.000310   0.001073  -0.067520   0.008695
    27  N   -0.005631   0.002231   0.000266   0.001229   0.008248  -0.000442
    28  C   -0.004459   0.001100  -0.000216  -0.000060   0.009042  -0.000986
    29  O    0.000095  -0.000162  -0.000019  -0.000016   0.000100  -0.000001
    30  C   -0.001465   0.002920   0.000372  -0.001020   0.006449  -0.000847
    31  H    0.000222   0.000429   0.000061  -0.000444   0.000502  -0.000065
    32  H   -0.000448   0.000494  -0.000092  -0.000119   0.000731  -0.000207
    33  H   -0.000263  -0.000493  -0.000124   0.000310  -0.000746   0.000152
    34  H   -0.000613  -0.000763  -0.000176   0.000184   0.003486  -0.000546
              19         20         21         22         23         24
     1  C    0.050226   0.001255  -0.003476   0.003959   0.002889  -0.000693
     2  C   -0.018335  -0.000150   0.038843   0.001804  -0.003416  -0.000557
     3  C   -0.000926  -0.000543   0.000839   0.000026   0.000256  -0.001186
     4  C    0.003014   0.000036   0.001094   0.000193   0.000091   0.001938
     5  C   -0.013477   0.000733  -0.005849  -0.001168  -0.000731   0.003120
     6  C   -0.001798  -0.001070  -0.033669  -0.002647   0.002437   0.000819
     7  F   -0.001752  -0.000022   0.001687  -0.000437  -0.000280   0.000969
     8  H    0.002171   0.000085  -0.000856   0.000377  -0.000454  -0.002540
     9  H   -0.000242  -0.000021  -0.000071  -0.000011   0.000078  -0.000523
    10  H    0.000214  -0.000001   0.000074   0.000010   0.000004  -0.000006
    11  H   -0.000297   0.000019  -0.000080   0.000014  -0.000019   0.000028
    12  H   -0.003577   0.000070  -0.000021  -0.000309   0.000107  -0.000498
    13  O   -0.004604   0.000089  -0.002036   0.000174  -0.000278  -0.000225
    14  C    0.001038  -0.000163   0.002830   0.000432   0.000484  -0.000465
    15  H   -0.000075  -0.000006  -0.001061  -0.000463  -0.000117   0.000304
    16  H   -0.000193  -0.000018   0.000399   0.000063  -0.000084  -0.000123
    17  H   -0.140555   0.006616  -0.085198  -0.035764  -0.010440   0.030630
    18  N    0.125735  -0.164562   0.109293  -0.107349  -0.042655  -0.047530
    19  C    5.017488   0.463171  -0.033844   0.037422  -0.007678  -0.011955
    20  O    0.463171   8.199769  -0.034379   0.033667  -0.002125  -0.002990
    21  C   -0.033844  -0.034379   5.279292   0.442301   0.414319   0.380510
    22  H    0.037422   0.033667   0.442301   0.472850  -0.025841  -0.027265
    23  H   -0.007678  -0.002125   0.414319  -0.025841   0.551533  -0.059263
    24  H   -0.011955  -0.002990   0.380510  -0.027265  -0.059263   0.566609
    25  H    0.432652  -0.033306  -0.005993   0.011927  -0.002339  -0.001721
    26  H    0.009063   0.000070   0.006138   0.000538   0.000676  -0.000611
    27  N   -0.000950  -0.000001  -0.000800  -0.000062  -0.000212   0.000141
    28  C   -0.001061  -0.000002  -0.000400  -0.000022   0.000023  -0.000003
    29  O   -0.000003  -0.000000  -0.000001   0.000000  -0.000002   0.000001
    30  C   -0.000457  -0.000000  -0.000568  -0.000017  -0.000045   0.000043
    31  H   -0.000021   0.000000  -0.000013   0.000001  -0.000002  -0.000001
    32  H    0.000018  -0.000002  -0.000054  -0.000003  -0.000012   0.000008
    33  H    0.000019   0.000001   0.000056  -0.000000   0.000006  -0.000003
    34  H   -0.000360   0.000001   0.000207   0.000015  -0.000168   0.000059
              25         26         27         28         29         30
     1  C    0.031066   0.032706  -0.051106   0.044421   0.001181  -0.004532
     2  C   -0.008997  -0.045299   0.038169   0.012211  -0.000749  -0.028235
     3  C   -0.003776   0.001931   0.013011  -0.009020   0.000300  -0.003486
     4  C    0.003350   0.008441  -0.002903   0.003646  -0.000088   0.000844
     5  C   -0.011072  -0.028370   0.022319  -0.003068  -0.000393   0.000923
     6  C    0.002741   0.016756  -0.009785  -0.027177  -0.000238   0.033988
     7  F   -0.003843   0.040249  -0.018032  -0.004326   0.000054   0.000445
     8  H    0.000322   0.007850   0.003428  -0.004110   0.000092  -0.000717
     9  H   -0.000114  -0.000002  -0.000107  -0.000261   0.000020   0.000043
    10  H   -0.000004  -0.000610  -0.000085   0.000227  -0.000003   0.000029
    11  H    0.000073   0.000793   0.000354  -0.000289  -0.000016   0.000010
    12  H   -0.011009  -0.005853  -0.000668   0.002094   0.000035  -0.001733
    13  O   -0.000625   0.035695  -0.005631  -0.004459   0.000095  -0.001465
    14  C   -0.000694  -0.014615   0.002231   0.001100  -0.000162   0.002920
    15  H    0.000179  -0.000310   0.000266  -0.000216  -0.000019   0.000372
    16  H   -0.000172   0.001073   0.001229  -0.000060  -0.000016  -0.001020
    17  H   -0.010649  -0.067520   0.008248   0.009042   0.000100   0.006449
    18  N   -0.226197   0.008695  -0.000442  -0.000986  -0.000001  -0.000847
    19  C    0.432652   0.009063  -0.000950  -0.001061  -0.000003  -0.000457
    20  O   -0.033306   0.000070  -0.000001  -0.000002  -0.000000  -0.000000
    21  C   -0.005993   0.006138  -0.000800  -0.000400  -0.000001  -0.000568
    22  H    0.011927   0.000538  -0.000062  -0.000022   0.000000  -0.000017
    23  H   -0.002339   0.000676  -0.000212   0.000023  -0.000002  -0.000045
    24  H   -0.001721  -0.000611   0.000141  -0.000003   0.000001   0.000043
    25  H    0.690143   0.003220  -0.000540  -0.000338   0.000001   0.000241
    26  H    0.003220   0.701346   0.294479  -0.138567   0.007144  -0.081830
    27  N   -0.000540   0.294479   7.197828   0.129251  -0.164570   0.113384
    28  C   -0.000338  -0.138567   0.129251   5.012062   0.462623  -0.036074
    29  O    0.000001   0.007144  -0.164570   0.462623   8.200392  -0.034758
    30  C    0.000241  -0.081830   0.113384  -0.036074  -0.034758   5.274593
    31  H    0.000017  -0.036620  -0.106984   0.037570   0.033534   0.442302
    32  H   -0.000168  -0.009925  -0.044023  -0.008176  -0.002063   0.415142
    33  H    0.000056   0.029462  -0.047906  -0.010995  -0.003023   0.380405
    34  H   -0.000072  -0.009512  -0.225345   0.431940  -0.033184  -0.006248
              31         32         33         34
     1  C    0.005168   0.004414  -0.008081   0.029853
     2  C   -0.001766   0.003898  -0.006986   0.004731
     3  C   -0.001098  -0.000501   0.001900  -0.011183
     4  C    0.000171   0.000052   0.002924   0.003421
     5  C   -0.000401  -0.000381   0.002183  -0.003747
     6  C    0.000512  -0.005980   0.011520  -0.009925
     7  F   -0.000681  -0.000163   0.000579  -0.003706
     8  H   -0.000263   0.000058  -0.000367  -0.011270
     9  H    0.000011  -0.000020  -0.000006   0.000068
    10  H    0.000013   0.000002   0.000030   0.000006
    11  H   -0.000019   0.000091  -0.000709  -0.000111
    12  H    0.000454  -0.000671  -0.001780   0.000238
    13  O    0.000222  -0.000448  -0.000263  -0.000613
    14  C    0.000429   0.000494  -0.000493  -0.000763
    15  H    0.000061  -0.000092  -0.000124  -0.000176
    16  H   -0.000444  -0.000119   0.000310   0.000184
    17  H    0.000502   0.000731  -0.000746   0.003486
    18  N   -0.000065  -0.000207   0.000152  -0.000546
    19  C   -0.000021   0.000018   0.000019  -0.000360
    20  O    0.000000  -0.000002   0.000001   0.000001
    21  C   -0.000013  -0.000054   0.000056   0.000207
    22  H    0.000001  -0.000003  -0.000000   0.000015
    23  H   -0.000002  -0.000012   0.000006  -0.000168
    24  H   -0.000001   0.000008  -0.000003   0.000059
    25  H    0.000017  -0.000168   0.000056  -0.000072
    26  H   -0.036620  -0.009925   0.029462  -0.009512
    27  N   -0.106984  -0.044023  -0.047906  -0.225345
    28  C    0.037570  -0.008176  -0.010995   0.431940
    29  O    0.033534  -0.002063  -0.003023  -0.033184
    30  C    0.442302   0.415142   0.380405  -0.006248
    31  H    0.473274  -0.025977  -0.027153   0.011863
    32  H   -0.025977   0.551898  -0.059362  -0.002297
    33  H   -0.027153  -0.059362   0.566945  -0.001679
    34  H    0.011863  -0.002297  -0.001679   0.689323
 Mulliken charges:
               1
     1  C   -0.642234
     2  C    0.145446
     3  C   -0.179726
     4  C   -0.459759
     5  C   -0.153417
     6  C    0.158263
     7  F   -0.055097
     8  H    0.256362
     9  H    0.250148
    10  H    0.211530
    11  H    0.251258
    12  H    0.250977
    13  O   -0.246521
    14  C    0.041051
    15  H    0.130792
    16  H    0.130644
    17  H    0.238160
    18  N   -0.143576
    19  C    0.099930
    20  O   -0.466218
    21  C   -0.469509
    22  H    0.195586
    23  H    0.183261
    24  H    0.172979
    25  H    0.145641
    26  H    0.233318
    27  N   -0.144187
    28  C    0.103400
    29  O   -0.466280
    30  C   -0.470100
    31  H    0.195403
    32  H    0.183837
    33  H    0.173128
    34  H    0.145512
 Sum of Mulliken charges =  -0.00000
 Mulliken charges with hydrogens summed into heavy atoms:
               1
     1  C   -0.642234
     2  C    0.401808
     3  C    0.070421
     4  C   -0.248229
     5  C    0.097842
     6  C    0.409240
     7  F   -0.055097
    13  O   -0.246521
    14  C    0.302486
    18  N    0.094584
    19  C    0.245571
    20  O   -0.466218
    21  C    0.082316
    27  N    0.089131
    28  C    0.248913
    29  O   -0.466280
    30  C    0.082268
 Electronic spatial extent (au):  <R**2>=           6468.9123
 Charge=             -0.0000 electrons
 Dipole moment (field-independent basis, Debye):
    X=              0.0340    Y=              1.1921    Z=             -0.0153  Tot=              1.1927
 Quadrupole moment (field-independent basis, Debye-Ang):
   XX=           -175.7340   YY=            -72.5432   ZZ=            -90.1366
   XY=             -0.1031   XZ=            -18.5221   YZ=             -0.0249
 Traceless Quadrupole moment (field-independent basis, Debye-Ang):
   XX=            -62.9294   YY=             40.2614   ZZ=             22.6680
   XY=             -0.1031   XZ=            -18.5221   YZ=             -0.0249
 Octapole moment (field-independent basis, Debye-Ang**2):
  XXX=              0.1215  YYY=            -81.9285  ZZZ=             -0.1086  XYY=              0.3902
  XXY=             57.9247  XXZ=             -0.5008  XZZ=             -0.0003  YZZ=              4.9712
  YYZ=             -0.0010  XYZ=             23.9424
 Hexadecapole moment (field-independent basis, Debye-Ang**3):
 XXXX=          -7265.1346 YYYY=          -2169.5329 ZZZZ=           -669.9431 XXXY=             -2.6258
 XXXZ=           -586.1569 YYYX=             -1.4682 YYYZ=              0.0048 ZZZX=             -5.8103
 ZZZY=             -0.0560 XXYY=          -1420.9485 XXZZ=           -925.7878 YYZZ=           -565.6486
 XXYZ=             -0.2383 YYXZ=            -16.1148 ZZXY=              0.2774
 N-N= 1.142775857940D+03 E-N=-4.308128045175D+03  KE= 8.612136543424D+02
 1\1\GINC-LOCALHOST\POpt\RM062X\6-311++G(d,p)\C11H17F1N2O3\DDDC\24-Mar-
 2024\1\\# opt=z-matrix 6-311++g(d,p) m062x scrf=(solvent=chloroform)\\
 test\\0,1\C\C,1,B1\C,2,B2,1,120.00000011\C,3,B3,2,120.,1,0.,0\C,4,B4,3
 ,119.99999989,2,0.,0\C,1,B5,2,119.97770821,3,1.71722694,0\F,1,B6,2,119
 .9999999,3,-180.,0\H,2,B7,1,120.00000011,6,-178.28277306,0\H,3,B8,2,12
 0.00000011,1,180.,0\H,4,B9,3,120.,2,180.,0\H,5,B10,4,120.00000011,3,18
 0.,0\H,6,B11,1,119.91553063,2,-177.77151684,0\O,1,B12,2,119.9999999,3,
 -180.,0\C,13,B13,1,179.90000005,2,180.,0\H,14,B14,13,119.99996989,1,-9
 0.04490481,0\H,14,B15,13,119.99996989,1,90.04490481,0\H,7,B16,1,100.00
 000001,2,90.,0\N,17,B17,7,179.9,1,90.,0\C,18,B18,17,119.5,7,0.,0\O,19,
 B19,18,123.2,17,-180.,0\C,18,B20,17,121.9,19,-180.,0\H,21,B21,18,110.7
 ,17,-180.,0\H,21,B22,18,110.7,17,-60.,0\H,21,B23,18,110.7,17,60.,0\H,1
 9,B24,18,113.46721803,17,0.,0\H,7,B25,1,100.00000001,2,-90.,0\N,26,B26
 ,7,179.9,1,-90.,0\C,27,B27,26,119.5,7,180.,0\O,28,B28,27,123.2,26,-180
 .,0\C,27,B29,26,121.9,28,-180.,0\H,30,B30,27,110.7,26,180.,0\H,30,B31,
 27,110.7,26,-60.,0\H,30,B32,27,110.7,26,60.,0\H,28,B33,27,113.46721803
 ,26,0.,0\\B1=1.38800828\B2=1.39046211\B3=1.38757961\B4=1.38759566\B5=1
 .38803032\B6=1.35508995\B7=1.0842433\B8=1.08257112\B9=1.0831018\B10=1.
 08258025\B11=1.08430133\B12=4.24624835\B13=1.20348856\B14=1.10151702\B
 15=1.10151534\B16=2.11213691\B17=1.00828689\B18=1.35216711\B19=1.21976
 503\B20=1.45231194\B21=1.08484671\B22=1.09219842\B23=1.09226814\B24=1.
 09972931\B25=2.10978051\B26=1.00828897\B27=1.35214614\B28=1.21978577\B
 29=1.45229115\B30=1.08484812\B31=1.09220385\B32=1.09227103\B33=1.09973
 062\\Version=ES64L-G16RevB.01\State=1-A\HF=-864.2978003\RMSD=5.023e-09
 \RMSF=5.048e-03\Dipole=0.4036278,0.0144543,0.2388943\Quadrupole=25.987
 1272,-44.0992772,18.11215,-9.384805,6.8301078,16.2896501\PG=C01 [X(C11
 H17F1N2O3)]\\@


 WHEN YOU'VE SEEN ONE NUCLEAR WAR YOU'VE SEEN THEM ALL.
 Job cpu time:       0 days  4 hours 55 minutes 16.6 seconds.
 Elapsed time:       0 days  0 hours 37 minutes 11.6 seconds.
 File lengths (MBytes):  RWF=    457 Int=      0 D2E=      0 Chk=     22 Scr=      1
 Normal termination of Gaussian 16 at Sun Mar 24 03:20:29 2024.
