 Entering Gaussian System, Link 0=g16
 Input=model_H2b.gjf
 Output=model_H2b.log
 Initial command:
 /home/lywu/software/g16/l1.exe "/home/lywu/software/g16/scr/Gau-5973.inp" -scrdir="/home/lywu/software/g16/scr/"
 Entering Link 1 = /home/lywu/software/g16/l1.exe PID=      5990.
  
 Copyright (c) 1988-2017, Gaussian, Inc.  All Rights Reserved.
  
 This is part of the Gaussian(R) 16 program.  It is based on
 the Gaussian(R) 09 system (copyright 2009, Gaussian, Inc.),
 the Gaussian(R) 03 system (copyright 2003, Gaussian, Inc.),
 the Gaussian(R) 98 system (copyright 1998, Gaussian, Inc.),
 the Gaussian(R) 94 system (copyright 1995, Gaussian, Inc.),
 the Gaussian 92(TM) system (copyright 1992, Gaussian, Inc.),
 the Gaussian 90(TM) system (copyright 1990, Gaussian, Inc.),
 the Gaussian 88(TM) system (copyright 1988, Gaussian, Inc.),
 the Gaussian 86(TM) system (copyright 1986, Carnegie Mellon
 University), and the Gaussian 82(TM) system (copyright 1983,
 Carnegie Mellon University). Gaussian is a federally registered
 trademark of Gaussian, Inc.
  
 This software contains proprietary and confidential information,
 including trade secrets, belonging to Gaussian, Inc.
  
 This software is provided under written license and may be
 used, copied, transmitted, or stored only in accord with that
 written license.
  
 The following legend is applicable only to US Government
 contracts under FAR:
  
                    RESTRICTED RIGHTS LEGEND
  
 Use, reproduction and disclosure by the US Government is
 subject to restrictions as set forth in subparagraphs (a)
 and (c) of the Commercial Computer Software - Restricted
 Rights clause in FAR 52.227-19.
  
 Gaussian, Inc.
 340 Quinnipiac St., Bldg. 40, Wallingford CT 06492
  
  
 ---------------------------------------------------------------
 Warning -- This program may not be used in any manner that
 competes with the business of Gaussian, Inc. or will provide
 assistance to any competitor of Gaussian, Inc.  The licensee
 of this program is prohibited from giving any competitor of
 Gaussian, Inc. access to this program.  By using this program,
 the user acknowledges that Gaussian, Inc. is engaged in the
 business of creating and licensing software in the field of
 computational chemistry and represents and warrants to the
 licensee that it is not a competitor of Gaussian, Inc. and that
 it will not use this program in any manner prohibited above.
 ---------------------------------------------------------------
  

 Cite this work as:
 Gaussian 16, Revision B.01,
 M. J. Frisch, G. W. Trucks, H. B. Schlegel, G. E. Scuseria, 
 M. A. Robb, J. R. Cheeseman, G. Scalmani, V. Barone, 
 G. A. Petersson, H. Nakatsuji, X. Li, M. Caricato, A. V. Marenich, 
 J. Bloino, B. G. Janesko, R. Gomperts, B. Mennucci, H. P. Hratchian, 
 J. V. Ortiz, A. F. Izmaylov, J. L. Sonnenberg, D. Williams-Young, 
 F. Ding, F. Lipparini, F. Egidi, J. Goings, B. Peng, A. Petrone, 
 T. Henderson, D. Ranasinghe, V. G. Zakrzewski, J. Gao, N. Rega, 
 G. Zheng, W. Liang, M. Hada, M. Ehara, K. Toyota, R. Fukuda, 
 J. Hasegawa, M. Ishida, T. Nakajima, Y. Honda, O. Kitao, H. Nakai, 
 T. Vreven, K. Throssell, J. A. Montgomery, Jr., J. E. Peralta, 
 F. Ogliaro, M. J. Bearpark, J. J. Heyd, E. N. Brothers, K. N. Kudin, 
 V. N. Staroverov, T. A. Keith, R. Kobayashi, J. Normand, 
 K. Raghavachari, A. P. Rendell, J. C. Burant, S. S. Iyengar, 
 J. Tomasi, M. Cossi, J. M. Millam, M. Klene, C. Adamo, R. Cammi, 
 J. W. Ochterski, R. L. Martin, K. Morokuma, O. Farkas, 
 J. B. Foresman, and D. J. Fox, Gaussian, Inc., Wallingford CT, 2016.
 
 ******************************************
 Gaussian 16:  ES64L-G16RevB.01 20-Dec-2017
                 6-Jan-2025 
 ******************************************
 %mem=2GB
 %nproc=2
 Will use up to    2 processors via shared memory.
 ----------------------------------------------------------------
 # m062x 6-311++G(d,p) opt=z-matrix scrf=(solvent=dichloroethane)
 ----------------------------------------------------------------
 1/10=7,18=40,26=3,38=1/1,3;
 2/12=2,17=6,18=5,29=3,40=1/2;
 3/5=4,6=6,7=1111,11=2,25=1,30=1,70=2201,71=1,72=10,74=-55/1,2,3;
 4//1;
 5/5=2,38=5,53=10/2;
 6/7=2,8=2,9=2,10=2,28=1/1;
 7/29=1/1,2,3,16;
 1/10=7,18=40,26=3/3(2);
 2/29=3/2;
 99//99;
 2/29=3/2;
 3/5=4,6=6,7=1111,11=2,25=1,30=1,70=2205,71=1,72=10,74=-55/1,2,3;
 4/5=5,16=3,69=1/1;
 5/5=2,38=5,53=10/2;
 7//1,2,3,16;
 1/18=40,26=3/3(-5);
 2/29=3/2;
 6/7=2,8=2,9=2,10=2,19=2,28=1/1;
 99/9=1/99;
 ----
 test
 ----
 Symbolic Z-matrix:
 Charge =  0 Multiplicity = 1
 C1
 C2                   1    d1
 C3                   2    d2       1     120. 
 C4                   3    d3       2     120.     1     0.       0
 C5                   4    d4       3     120.     2     0.       0
 C6                   5    d5       4     120.     3     0.       0
 F7                   1    d6       2     120.     3     180.     0
 H8                   2    d7       3     120.     4     180.     0
 H9                   3    d8       4     120.     5     180.     0
 H10                  4    d9       5     120.     6     180.     0
 H11                  5    d10      6     120.     1     180.     0
 H12                  6    d11      1     120.     2     180.     0
 O13                  7    d12      1     179.9    3     180.     0
 C14                  13   d13      1     179.9    2     180.     0
 H15                  14   d14      1     120.     2     90.      0
 H16                  14   d15      1     120.     2    -90.      0
 H17                  7    d16      1     100.     2     90.      0
 F18                  17   d17      7     160.     1     0.       0
 H19                  7    d18      1     100.     2    -90.      0
 F20                  19   d19      7     160.     1     0.       0
       Variables:
  d1                    1.3                      
  d2                    1.3                      
  d3                    1.3                      
  d4                    1.3                      
  d5                    1.3                      
  d6                    1.4                      
  d7                    1.                       
  d8                    1.                       
  d9                    1.                       
  d10                   1.                       
  d11                   1.                       
  d12                   2.8                      
  d13                   1.2                      
  d14                   1.                       
  d15                   1.                       
  d16                   2.3                      
  d17                   0.9                      
  d18                   2.3                      
  d19                   0.9                      
 

 GradGradGradGradGradGradGradGradGradGradGradGradGradGradGradGradGradGrad
 Berny optimization.
 Initialization pass.
                       ----------------------------
                       !    Initial Parameters    !
                       ! (Angstroms and Degrees)  !
 ----------------------                            ----------------------
 !      Name          Value   Derivative information (Atomic Units)     !
 ------------------------------------------------------------------------
 !       d1          1.3      estimate D2E/DX2                          !
 !       d2          1.3      estimate D2E/DX2                          !
 !       d3          1.3      estimate D2E/DX2                          !
 !       d4          1.3      estimate D2E/DX2                          !
 !       d5          1.3      estimate D2E/DX2                          !
 !       d6          1.4      estimate D2E/DX2                          !
 !       d7          1.0      estimate D2E/DX2                          !
 !       d8          1.0      estimate D2E/DX2                          !
 !       d9          1.0      estimate D2E/DX2                          !
 !       d10         1.0      estimate D2E/DX2                          !
 !       d11         1.0      estimate D2E/DX2                          !
 !       d12         2.8      estimate D2E/DX2                          !
 !       d13         1.2      estimate D2E/DX2                          !
 !       d14         1.0      estimate D2E/DX2                          !
 !       d15         1.0      estimate D2E/DX2                          !
 !       d16         2.3      estimate D2E/DX2                          !
 !       d17         0.9      estimate D2E/DX2                          !
 !       d18         2.3      estimate D2E/DX2                          !
 !       d19         0.9      estimate D2E/DX2                          !
 ------------------------------------------------------------------------
 Trust Radius=3.00D-01 FncErr=1.00D-07 GrdErr=1.00D-06 EigMax=2.50D+02 EigMin=1.00D-04
 Number of steps in this run=     29 maximum allowed number of steps=    100.
 GradGradGradGradGradGradGradGradGradGradGradGradGradGradGradGradGradGrad

 ---------------------------------------------------------------------------------------------------
                            Z-MATRIX (ANGSTROMS AND DEGREES)
   CD    Cent   Atom    N1       Length/X        N2       Alpha/Y        N3        Beta/Z          J
 ---------------------------------------------------------------------------------------------------
      1      1  C 
      2      2  C        1   1.300000(     1)
      3      3  C        2   1.300000(     2)      1  120.000(    20)
      4      4  C        3   1.300000(     3)      2  120.000(    21)      1    0.000(    38)      0
      5      5  C        4   1.300000(     4)      3  120.000(    22)      2    0.000(    39)      0
      6      6  C        5   1.300000(     5)      4  120.000(    23)      3    0.000(    40)      0
      7      7  F        1   1.400000(     6)      2  120.000(    24)      3  180.000(    41)      0
      8      8  H        2   1.000000(     7)      3  120.000(    25)      4  180.000(    42)      0
      9      9  H        3   1.000000(     8)      4  120.000(    26)      5  180.000(    43)      0
     10     10  H        4   1.000000(     9)      5  120.000(    27)      6  180.000(    44)      0
     11     11  H        5   1.000000(    10)      6  120.000(    28)      1  180.000(    45)      0
     12     12  H        6   1.000000(    11)      1  120.000(    29)      2  180.000(    46)      0
     13     13  O        7   2.800000(    12)      1  179.900(    30)      3  180.000(    47)      0
     14     14  C       13   1.200000(    13)      1  179.900(    31)      2  180.000(    48)      0
     15     15  H       14   1.000000(    14)      1  120.000(    32)      2   90.000(    49)      0
     16     16  H       14   1.000000(    15)      1  120.000(    33)      2  -90.000(    50)      0
     17     17  H        7   2.300000(    16)      1  100.000(    34)      2   90.000(    51)      0
     18     18  F       17   0.900000(    17)      7  160.000(    35)      1    0.000(    52)      0
     19     19  H        7   2.300000(    18)      1  100.000(    36)      2  -90.000(    53)      0
     20     20  F       19   0.900000(    19)      7  160.000(    37)      1    0.000(    54)      0
 ---------------------------------------------------------------------------------------------------
                         Z-Matrix orientation:                         
 ---------------------------------------------------------------------
 Center     Atomic      Atomic             Coordinates (Angstroms)
 Number     Number       Type             X           Y           Z
 ---------------------------------------------------------------------
      1          6           0        0.000000    0.000000    0.000000
      2          6           0        0.000000    0.000000    1.300000
      3          6           0        1.125833    0.000000    1.950000
      4          6           0        2.251666    0.000000    1.300000
      5          6           0        2.251666    0.000000   -0.000000
      6          6           0        1.125833    0.000000   -0.650000
      7          9           0       -1.212436   -0.000000   -0.700000
      8          1           0       -0.866025   -0.000000    1.800000
      9          1           0        1.125833   -0.000000    2.950000
     10          1           0        3.117691   -0.000000    1.800000
     11          1           0        3.117691   -0.000000   -0.500000
     12          1           0        1.125833   -0.000000   -1.650000
     13          8           0       -3.634860   -0.000000   -2.104230
     14          6           0       -4.672340   -0.000000   -2.707251
     15          1           0       -5.104965    0.866025   -2.957922
     16          1           0       -5.104965   -0.866025   -2.957922
     17          1           0       -1.558318    2.265058   -0.899695
     18          9           0       -1.422973    3.151385   -0.821554
     19          1           0       -1.558318   -2.265058   -0.899695
     20          9           0       -1.422973   -3.151385   -0.821554
 ---------------------------------------------------------------------
                    Distance matrix (angstroms):
                    1          2          3          4          5
     1  C    0.000000
     2  C    1.300000   0.000000
     3  C    2.251666   1.300000   0.000000
     4  C    2.600000   2.251666   1.300000   0.000000
     5  C    2.251666   2.600000   2.251666   1.300000   0.000000
     6  C    1.300000   2.251666   2.600000   2.251666   1.300000
     7  F    1.400000   2.338803   3.534119   4.000000   3.534119
     8  H    1.997498   1.000000   1.997498   3.157531   3.600000
     9  H    3.157531   1.997498   1.000000   1.997498   3.157531
    10  H    3.600000   3.157531   1.997498   1.000000   1.997498
    11  H    3.157531   3.600000   3.157531   1.997498   1.000000
    12  H    1.997498   3.157531   3.600000   3.157531   1.997498
    13  O    4.199999   4.980059   6.253077   6.799997   6.251317
    14  C    5.399997   6.155390   7.436988   7.999995   7.434452
    15  H    5.963218   6.703772   7.978755   8.543999   7.976172
    16  H    5.963218   6.703772   7.978755   8.543999   7.976172
    17  H    2.892800   3.521009   4.522822   4.948245   4.522822
    18  F    3.554016   4.056731   4.910107   5.285375   4.910107
    19  H    2.892800   3.521009   4.522822   4.948245   4.522822
    20  F    3.554016   4.056731   4.910107   5.285375   4.910107
                    6          7          8          9         10
     6  C    0.000000
     7  F    2.338803   0.000000
     8  H    3.157531   2.523886   0.000000
     9  H    3.600000   4.334743   2.300000   0.000000
    10  H    3.157531   5.000000   3.983717   2.300000   0.000000
    11  H    1.997498   4.334743   4.600000   3.983717   2.300000
    12  H    1.000000   2.523886   3.983717   4.600000   3.983717
    13  O    4.977849   2.800000   4.786382   6.943301   7.799997
    14  C    6.152324   3.999999   5.899436   8.100821   8.999995
    15  H    6.700697   4.582575   6.430896   8.629970   9.539387
    16  H    6.700697   4.582575   6.430896   8.629970   9.539387
    17  H    3.521009   2.300000   3.591394   5.211076   5.855246
    18  F    4.056731   3.160748   4.136902   5.536448   6.117303
    19  H    3.521009   2.300000   3.591394   5.211076   5.855246
    20  F    4.056731   3.160748   4.136902   5.536448   6.117303
                   11         12         13         14         15
    11  H    0.000000
    12  H    2.300000   0.000000
    13  O    6.940497   4.782313   0.000000
    14  C    8.096700   5.893776   1.200000   0.000000
    15  H    8.625744   6.425224   1.907878   1.000000   0.000000
    16  H    8.625744   6.425224   1.907878   1.000000   1.732051
    17  H    5.211076   3.591394   3.300517   4.253807   4.332700
    18  F    5.536448   4.136902   4.058193   4.903618   4.831563
    19  H    5.211076   3.591394   3.300517   4.253807   5.159329
    20  F    5.536448   4.136902   4.058193   4.903618   5.853266
                   16         17         18         19         20
    16  H    0.000000
    17  H    5.159329   0.000000
    18  F    5.853266   0.900000   0.000000
    19  H    4.332700   4.530116   5.418697   0.000000
    20  F    4.831563   5.418697   6.302770   0.900000   0.000000
 Stoichiometry    C7H9F3O
 Framework group  CS[SG(C7H5FO),X(H4F2)]
 Deg. of freedom    34
 Full point group                 CS      NOp   2
 Largest Abelian subgroup         CS      NOp   2
 Largest concise Abelian subgroup CS      NOp   2
                         Standard orientation:                         
 ---------------------------------------------------------------------
 Center     Atomic      Atomic             Coordinates (Angstroms)
 Number     Number       Type             X           Y           Z
 ---------------------------------------------------------------------
      1          6           0       -0.001252   -0.790402   -0.000000
      2          6           0       -1.127085   -1.440402   -0.000000
      3          6           0       -1.127085   -2.740402   -0.000000
      4          6           0       -0.001252   -3.390402   -0.000000
      5          6           0        1.124581   -2.740402   -0.000000
      6          6           0        1.124581   -1.440402   -0.000000
      7          9           0       -0.001252    0.609598    0.000000
      8          1           0       -1.993110   -0.940402   -0.000000
      9          1           0       -1.993110   -3.240402   -0.000000
     10          1           0       -0.001252   -4.390402   -0.000000
     11          1           0        1.990606   -3.240402   -0.000000
     12          1           0        1.990606   -0.940402   -0.000000
     13          8           0        0.003635    3.409593    0.000000
     14          6           0        0.007126    4.609588    0.000000
     15          1           0        0.007901    5.109588    0.866025
     16          1           0        0.007901    5.109588   -0.866025
     17          1           0       -0.001252    1.008988    2.265058
     18          9           0       -0.001252    0.852705    3.151385
     19          1           0       -0.001252    1.008988   -2.265058
     20          9           0       -0.001252    0.852705   -3.151385
 ---------------------------------------------------------------------
 Rotational constants (GHZ):           1.0844055           0.4930931           0.3779130
 Standard basis: 6-311++G(d,p) (5D, 7F)
 There are   220 symmetry adapted cartesian basis functions of A'  symmetry.
 There are    96 symmetry adapted cartesian basis functions of A"  symmetry.
 There are   210 symmetry adapted basis functions of A'  symmetry.
 There are    95 symmetry adapted basis functions of A"  symmetry.
   305 basis functions,   477 primitive gaussians,   316 cartesian basis functions
    43 alpha electrons       43 beta electrons
       nuclear repulsion energy       583.9088757139 Hartrees.
 NAtoms=   20 NActive=   20 NUniq=   17 SFac= 1.38D+00 NAtFMM=   60 NAOKFM=F Big=F
 Integral buffers will be    131072 words long.
 Raffenetti 2 integral format.
 Two-electron integral symmetry is turned on.
 ------------------------------------------------------------------------------
 Polarizable Continuum Model (PCM)
 =================================
 Model                : PCM.
 Atomic radii         : UFF (Universal Force Field).
 Polarization charges : Total charges.
 Charge compensation  : None.
 Solution method      : On-the-fly selection.
 Cavity type          : Scaled VdW (van der Waals Surface) (Alpha=1.100).
 Cavity algorithm     : GePol (No added spheres)
                        Default sphere list used, NSphG=   20.
                        Lebedev-Laikov grids with approx.  5.0 points / Ang**2.
                        Smoothing algorithm: York/Karplus (Gamma=1.0000).
                        Polarization charges: spherical gaussians, with
                                              point-specific exponents (IZeta= 3).
                        Self-potential: point-specific (ISelfS= 7).
                        Self-field    : sphere-specific E.n sum rule (ISelfD= 2).
 1st derivatives      : Analytical E(r).r(x)/FMM algorithm (CHGder, D1EAlg=3).
                        Cavity 1st derivative terms included.
 Solvent              : DiChloroEthane, Eps=  10.125000 Eps(inf)=   2.087447
 ------------------------------------------------------------------------------
 Spheres list:
 ISph  on   Nord     Re0    Alpha      Xe            Ye            Ze
    1   C      1    1.9255  1.100     -0.001252     -0.790402     -0.000000
    2   C      2    1.9255  1.100     -1.127085     -1.440402     -0.000000
    3   C      3    1.9255  1.100     -1.127085     -2.740402     -0.000000
    4   C      4    1.9255  1.100     -0.001252     -3.390402     -0.000000
    5   C      5    1.9255  1.100      1.124581     -2.740402     -0.000000
    6   C      6    1.9255  1.100      1.124581     -1.440402     -0.000000
    7   F      7    1.6820  1.100     -0.001252      0.609598      0.000000
    8   H      8    1.4430  1.100     -1.993110     -0.940402     -0.000000
    9   H      9    1.4430  1.100     -1.993110     -3.240402     -0.000000
   10   H     10    1.4430  1.100     -0.001252     -4.390402     -0.000000
   11   H     11    1.4430  1.100      1.990606     -3.240402     -0.000000
   12   H     12    1.4430  1.100      1.990606     -0.940402     -0.000000
   13   O     13    1.7500  1.100      0.003635      3.409593      0.000000
   14   C     14    1.9255  1.100      0.007126      4.609588      0.000000
   15   H     15    1.4430  1.100      0.007901      5.109588      0.866025
   16   H     16    1.4430  1.100      0.007901      5.109588     -0.866025
   17   H     17    1.4430  1.100     -0.001252      1.008988      2.265058
   18   F     18    1.6820  1.100     -0.001252      0.852705      3.151385
   19   H     19    1.4430  1.100     -0.001252      1.008988     -2.265058
   20   F     20    1.6820  1.100     -0.001252      0.852705     -3.151385
 ------------------------------------------------------------------------------
 One-electron integrals computed using PRISM.
 NBasis=   305 RedAO= T EigKep=  3.67D-06  NBF=   210    95
 NBsUse=   304 1.00D-06 EigRej=  4.85D-07 NBFU=   209    95
 ExpMin= 3.60D-02 ExpMax= 1.14D+04 ExpMxC= 1.72D+03 IAcc=3 IRadAn=         5 AccDes= 0.00D+00
 Harris functional with IExCor= 1009 and IRadAn=       5 diagonalized for initial guess.
 HarFok:  IExCor= 1009 AccDes= 0.00D+00 IRadAn=         5 IDoV= 1 UseB2=F ITyADJ=14
 ICtDFT=  3500011 ScaDFX=  1.000000  1.000000  1.000000  1.000000
 FoFCou: FMM=F IPFlag=           0 FMFlag=      100000 FMFlg1=           0
         NFxFlg=           0 DoJE=T BraDBF=F KetDBF=T FulRan=T
         wScrn=  0.000000 ICntrl=       500 IOpCl=  0 I1Cent=   200000004 NGrid=           0
         NMat0=    1 NMatS0=      1 NMatT0=    0 NMatD0=    1 NMtDS0=    0 NMtDT0=    0
 Petite list used in FoFCou.
 Initial guess orbital symmetries:
       Occupied  (A') (A") (A') (A') (A') (A') (A') (A') (A') (A')
                 (A') (A') (A") (A') (A') (A') (A') (A') (A') (A')
                 (A') (A') (A') (A") (A") (A') (A') (A') (A') (A')
                 (A") (A') (A') (A') (A") (A') (A') (A") (A") (A')
                 (A") (A") (A")
       Virtual   (A') (A") (A") (A') (A') (A") (A') (A') (A') (A')
                 (A') (A") (A") (A') (A") (A') (A') (A') (A") (A')
                 (A') (A') (A") (A') (A') (A") (A') (A') (A") (A')
                 (A") (A') (A') (A') (A') (A') (A") (A') (A") (A')
                 (A") (A') (A') (A') (A') (A') (A') (A') (A") (A')
                 (A') (A") (A') (A') (A") (A') (A') (A') (A') (A")
                 (A') (A') (A') (A') (A') (A') (A') (A") (A') (A")
                 (A') (A') (A') (A') (A") (A") (A') (A") (A') (A')
                 (A') (A') (A') (A") (A") (A") (A') (A") (A') (A')
                 (A") (A') (A') (A') (A') (A') (A") (A') (A') (A')
                 (A') (A') (A') (A') (A") (A") (A') (A") (A') (A')
                 (A") (A") (A') (A') (A") (A') (A") (A') (A") (A')
                 (A') (A") (A') (A') (A") (A') (A") (A') (A') (A")
                 (A') (A") (A') (A') (A") (A') (A') (A') (A") (A")
                 (A') (A") (A') (A') (A') (A") (A") (A') (A") (A')
                 (A') (A") (A') (A') (A') (A") (A') (A') (A') (A")
                 (A") (A") (A') (A') (A") (A') (A') (A') (A") (A')
                 (A') (A") (A") (A') (A') (A") (A') (A') (A") (A')
                 (A") (A') (A') (A") (A') (A') (A') (A") (A") (A')
                 (A') (A') (A") (A') (A') (A') (A") (A') (A") (A")
                 (A') (A') (A') (A") (A') (A') (A') (A') (A') (A')
                 (A') (A") (A') (A') (A') (A") (A") (A') (A') (A")
                 (A') (A") (A") (A') (A") (A') (A') (A") (A') (A')
                 (A') (A') (A') (A') (A") (A') (A') (A') (A') (A")
                 (A') (A") (A') (A") (A') (A") (A') (A') (A") (A')
                 (A') (A') (A') (A') (A') (A') (A') (A') (A") (A')
                 (A')
 The electronic state of the initial guess is 1-A'.
 Requested convergence on RMS density matrix=1.00D-08 within 128 cycles.
 Requested convergence on MAX density matrix=1.00D-06.
 Requested convergence on             energy=1.00D-06.
 No special actions if energy rises.
 Inv3:  Mode=1 IEnd=    12904428.
 Iteration    1 A*A^-1 deviation from unit magnitude is 2.89D-15 for   2046.
 Iteration    1 A*A^-1 deviation from orthogonality  is 1.89D-15 for   2065   1606.
 Iteration    1 A^-1*A deviation from unit magnitude is 2.89D-15 for   2046.
 Iteration    1 A^-1*A deviation from orthogonality  is 2.09D-15 for   2069   1632.
 Error on total polarization charges =  0.01039
 SCF Done:  E(RM062X) =  -646.742440945     A.U. after   13 cycles
            NFock= 13  Conv=0.96D-08     -V/T= 1.9990

 **********************************************************************

            Population analysis using the SCF Density.

 **********************************************************************

 Orbital symmetries:
       Occupied  (A') (A') (A") (A') (A') (A') (A') (A') (A') (A')
                 (A') (A') (A") (A') (A') (A') (A') (A') (A') (A')
                 (A') (A') (A") (A') (A") (A') (A') (A") (A') (A')
                 (A') (A') (A') (A") (A") (A') (A") (A') (A') (A')
                 (A") (A") (A")
       Virtual   (A') (A') (A') (A') (A") (A') (A") (A") (A') (A')
                 (A") (A') (A') (A") (A') (A') (A") (A') (A") (A')
                 (A') (A') (A') (A') (A") (A') (A") (A") (A') (A')
                 (A") (A') (A') (A') (A') (A") (A') (A') (A') (A')
                 (A') (A") (A") (A') (A') (A") (A') (A") (A') (A')
                 (A') (A') (A") (A') (A') (A') (A") (A') (A') (A')
                 (A') (A') (A') (A") (A') (A') (A') (A') (A') (A")
                 (A') (A') (A") (A') (A") (A') (A') (A") (A') (A')
                 (A') (A') (A") (A") (A') (A") (A") (A') (A') (A")
                 (A') (A') (A") (A') (A') (A') (A') (A') (A') (A')
                 (A') (A') (A') (A') (A') (A") (A') (A') (A") (A")
                 (A') (A') (A") (A') (A") (A") (A') (A") (A") (A")
                 (A') (A') (A') (A') (A") (A') (A") (A') (A") (A')
                 (A') (A') (A") (A') (A") (A") (A') (A') (A') (A')
                 (A') (A") (A") (A') (A") (A") (A') (A') (A") (A')
                 (A') (A') (A") (A') (A") (A') (A') (A") (A') (A')
                 (A") (A") (A') (A') (A") (A') (A') (A') (A') (A')
                 (A") (A") (A") (A') (A') (A") (A') (A') (A") (A")
                 (A') (A') (A') (A') (A') (A") (A') (A') (A') (A")
                 (A') (A') (A') (A') (A") (A") (A') (A") (A") (A")
                 (A') (A') (A') (A") (A') (A') (A') (A') (A') (A")
                 (A') (A') (A') (A') (A') (A") (A") (A") (A') (A')
                 (A') (A") (A") (A') (A') (A") (A') (A") (A') (A')
                 (A') (A') (A') (A') (A") (A') (A') (A') (A') (A")
                 (A') (A") (A') (A") (A') (A") (A') (A') (A") (A')
                 (A') (A') (A') (A') (A') (A') (A') (A') (A") (A')
                 (A')
 The electronic state is 1-A'.
 Alpha  occ. eigenvalues --  -25.26411 -25.23283 -25.23283 -19.64063 -10.61726
 Alpha  occ. eigenvalues --  -10.61706 -10.52709 -10.52706 -10.52367 -10.52355
 Alpha  occ. eigenvalues --  -10.51640  -1.36932  -1.35111  -1.35090  -1.19247
 Alpha  occ. eigenvalues --   -1.03430  -0.89581  -0.88755  -0.75109  -0.74085
 Alpha  occ. eigenvalues --   -0.72730  -0.66853  -0.65107  -0.64821  -0.60613
 Alpha  occ. eigenvalues --   -0.59565  -0.59231  -0.57761  -0.54158  -0.53720
 Alpha  occ. eigenvalues --   -0.52793  -0.51863  -0.51860  -0.51852  -0.51831
 Alpha  occ. eigenvalues --   -0.50729  -0.48186  -0.47643  -0.44713  -0.42322
 Alpha  occ. eigenvalues --   -0.35200  -0.34099  -0.33226
 Alpha virt. eigenvalues --   -0.00618  -0.00476   0.00803   0.01416   0.01423
 Alpha virt. eigenvalues --    0.02138   0.02304   0.03181   0.03512   0.03727
 Alpha virt. eigenvalues --    0.04598   0.05809   0.07112   0.07513   0.07820
 Alpha virt. eigenvalues --    0.08842   0.08905   0.10609   0.11604   0.11708
 Alpha virt. eigenvalues --    0.12656   0.13032   0.13432   0.13841   0.13991
 Alpha virt. eigenvalues --    0.14133   0.14185   0.14819   0.14977   0.15464
 Alpha virt. eigenvalues --    0.16246   0.17250   0.17350   0.18470   0.19872
 Alpha virt. eigenvalues --    0.20472   0.20844   0.20950   0.21554   0.22053
 Alpha virt. eigenvalues --    0.22838   0.24577   0.25959   0.26553   0.27323
 Alpha virt. eigenvalues --    0.27824   0.28532   0.30683   0.30741   0.30851
 Alpha virt. eigenvalues --    0.32630   0.33027   0.33252   0.33665   0.33890
 Alpha virt. eigenvalues --    0.34734   0.35288   0.36106   0.36887   0.38310
 Alpha virt. eigenvalues --    0.39709   0.41530   0.42899   0.43400   0.43424
 Alpha virt. eigenvalues --    0.44100   0.45526   0.45828   0.51365   0.52199
 Alpha virt. eigenvalues --    0.54619   0.54678   0.55990   0.56946   0.58446
 Alpha virt. eigenvalues --    0.58778   0.59301   0.59310   0.61078   0.61957
 Alpha virt. eigenvalues --    0.64098   0.64783   0.65322   0.65428   0.65855
 Alpha virt. eigenvalues --    0.66258   0.68064   0.70177   0.71358   0.74617
 Alpha virt. eigenvalues --    0.75155   0.75953   0.79616   0.81316   0.81541
 Alpha virt. eigenvalues --    0.83524   0.85325   0.85763   0.89278   0.89820
 Alpha virt. eigenvalues --    0.94045   0.96814   0.99818   1.01465   1.02291
 Alpha virt. eigenvalues --    1.02772   1.05651   1.06368   1.07636   1.08150
 Alpha virt. eigenvalues --    1.11375   1.11975   1.15913   1.16725   1.19269
 Alpha virt. eigenvalues --    1.22613   1.22831   1.23681   1.27354   1.32207
 Alpha virt. eigenvalues --    1.32539   1.32830   1.35120   1.35537   1.36303
 Alpha virt. eigenvalues --    1.37076   1.38450   1.44814   1.45239   1.49506
 Alpha virt. eigenvalues --    1.50807   1.52171   1.52635   1.53306   1.54840
 Alpha virt. eigenvalues --    1.58536   1.61150   1.63369   1.64333   1.65243
 Alpha virt. eigenvalues --    1.66240   1.67315   1.68117   1.71238   1.73075
 Alpha virt. eigenvalues --    1.73577   1.76400   1.76615   1.82004   1.82225
 Alpha virt. eigenvalues --    1.84587   1.85558   1.85560   1.90722   1.92607
 Alpha virt. eigenvalues --    1.94029   1.94176   1.97231   1.99144   2.04251
 Alpha virt. eigenvalues --    2.04402   2.05386   2.05684   2.06257   2.11880
 Alpha virt. eigenvalues --    2.15493   2.17180   2.18028   2.18356   2.20036
 Alpha virt. eigenvalues --    2.21675   2.23188   2.36648   2.37871   2.40490
 Alpha virt. eigenvalues --    2.46258   2.48331   2.50574   2.50716   2.54243
 Alpha virt. eigenvalues --    2.55886   2.58213   2.65002   2.67106   2.70661
 Alpha virt. eigenvalues --    2.73472   2.75329   2.76999   2.78176   2.78589
 Alpha virt. eigenvalues --    2.79751   2.81535   2.86362   2.86586   2.87305
 Alpha virt. eigenvalues --    2.89659   2.90664   2.96250   2.98254   2.98478
 Alpha virt. eigenvalues --    3.03686   3.08341   3.11736   3.24424   3.27092
 Alpha virt. eigenvalues --    3.35025   3.39578   3.41653   3.55192   3.59981
 Alpha virt. eigenvalues --    3.61372   3.64541   3.74960   3.75989   3.86495
 Alpha virt. eigenvalues --    3.87429   3.88451   3.88560   3.88650   3.88779
 Alpha virt. eigenvalues --    3.99285   4.00723   4.03673   4.08342   4.13665
 Alpha virt. eigenvalues --    4.14496   4.15088   4.16167   4.17332   4.18328
 Alpha virt. eigenvalues --    4.19127   4.25777   4.26827   4.36725   4.91412
 Alpha virt. eigenvalues --    4.91957   4.94636   4.95401   5.11407   5.24480
 Alpha virt. eigenvalues --    5.82318   6.40698   6.41701   6.44115   6.44784
 Alpha virt. eigenvalues --    6.55621   6.61281   6.83642   6.85886   6.89773
 Alpha virt. eigenvalues --   23.73127  24.17253  24.26761  24.31452  24.54080
 Alpha virt. eigenvalues --   24.57194  24.72723  50.07124  66.90585  66.91474
 Alpha virt. eigenvalues --   66.96453
          Condensed to atoms (all electrons):
               1          2          3          4          5          6
     1  C   16.035671  -1.515765  -3.112389  -0.755298  -3.113776  -1.519553
     2  C   -1.515765  16.224403   2.714252  -1.061278  -1.595022  -9.047087
     3  C   -3.112389   2.714252   7.888429   0.703991  -0.710077  -1.598973
     4  C   -0.755298  -1.061278   0.703991   7.397739   0.707167  -1.052267
     5  C   -3.113776  -1.595022  -0.710077   0.707167   7.888242   2.709357
     6  C   -1.519553  -9.047087  -1.598973  -1.052267   2.709357  16.227945
     7  F    0.676493  -0.302172  -0.069340   0.021155  -0.069561  -0.302992
     8  H   -0.118501   0.579526  -0.079008  -0.030066   0.031920  -0.050799
     9  H   -0.020857  -0.047653   0.457061  -0.112231  -0.001695   0.064229
    10  H    0.045452  -0.029361  -0.075471   0.523774  -0.075520  -0.029189
    11  H   -0.020725   0.064352  -0.001668  -0.112239   0.457127  -0.047993
    12  H   -0.117461  -0.049591   0.032072  -0.030345  -0.079860   0.578240
    13  O    0.068774  -0.021029  -0.001539  -0.001334  -0.001526  -0.021109
    14  C   -0.001808  -0.001013   0.000036   0.000095   0.000009  -0.001255
    15  H   -0.000307   0.000183   0.000037  -0.000056   0.000037   0.000181
    16  H   -0.000307   0.000183   0.000037  -0.000056   0.000037   0.000181
    17  H    0.016341  -0.003561  -0.001390  -0.000951  -0.001353  -0.003480
    18  F    0.123616  -0.033334  -0.022182   0.006918  -0.022176  -0.033433
    19  H    0.016341  -0.003561  -0.001390  -0.000951  -0.001353  -0.003480
    20  F    0.123616  -0.033334  -0.022182   0.006918  -0.022176  -0.033433
               7          8          9         10         11         12
     1  C    0.676493  -0.118501  -0.020857   0.045452  -0.020725  -0.117461
     2  C   -0.302172   0.579526  -0.047653  -0.029361   0.064352  -0.049591
     3  C   -0.069340  -0.079008   0.457061  -0.075471  -0.001668   0.032072
     4  C    0.021155  -0.030066  -0.112231   0.523774  -0.112239  -0.030345
     5  C   -0.069561   0.031920  -0.001695  -0.075520   0.457127  -0.079860
     6  C   -0.302992  -0.050799   0.064229  -0.029189  -0.047993   0.578240
     7  F    9.242800  -0.022837  -0.001281   0.001276  -0.001276  -0.022776
     8  H   -0.022837   0.491587  -0.010040   0.000128   0.003060   0.000578
     9  H   -0.001281  -0.010040   0.472581  -0.013587   0.000815   0.003064
    10  H    0.001276   0.000128  -0.013587   0.481282  -0.013591   0.000129
    11  H   -0.001276   0.003060   0.000815  -0.013591   0.472595  -0.010064
    12  H   -0.022776   0.000578   0.003064   0.000129  -0.010064   0.491646
    13  O   -0.000664   0.002018   0.000058  -0.000009   0.000058   0.002022
    14  C    0.002382  -0.000268   0.000001   0.000002   0.000001  -0.000264
    15  H   -0.000389  -0.000010   0.000004  -0.000001   0.000004  -0.000010
    16  H   -0.000389  -0.000010   0.000004  -0.000001   0.000004  -0.000010
    17  H    0.013929  -0.000634   0.000051  -0.000038   0.000051  -0.000634
    18  F   -0.008648   0.000389  -0.000753   0.000187  -0.000753   0.000396
    19  H    0.013929  -0.000634   0.000051  -0.000038   0.000051  -0.000634
    20  F   -0.008648   0.000389  -0.000753   0.000187  -0.000753   0.000396
              13         14         15         16         17         18
     1  C    0.068774  -0.001808  -0.000307  -0.000307   0.016341   0.123616
     2  C   -0.021029  -0.001013   0.000183   0.000183  -0.003561  -0.033334
     3  C   -0.001539   0.000036   0.000037   0.000037  -0.001390  -0.022182
     4  C   -0.001334   0.000095  -0.000056  -0.000056  -0.000951   0.006918
     5  C   -0.001526   0.000009   0.000037   0.000037  -0.001353  -0.022176
     6  C   -0.021109  -0.001255   0.000181   0.000181  -0.003480  -0.033433
     7  F   -0.000664   0.002382  -0.000389  -0.000389   0.013929  -0.008648
     8  H    0.002018  -0.000268  -0.000010  -0.000010  -0.000634   0.000389
     9  H    0.000058   0.000001   0.000004   0.000004   0.000051  -0.000753
    10  H   -0.000009   0.000002  -0.000001  -0.000001  -0.000038   0.000187
    11  H    0.000058   0.000001   0.000004   0.000004   0.000051  -0.000753
    12  H    0.002022  -0.000264  -0.000010  -0.000010  -0.000634   0.000396
    13  O    8.196172   0.273480  -0.089241  -0.089241   0.002848  -0.001991
    14  C    0.273480   4.805845   0.416239   0.416239   0.001558  -0.000594
    15  H   -0.089241   0.416239   0.667550  -0.122288  -0.001111   0.000497
    16  H   -0.089241   0.416239  -0.122288   0.667550   0.000408  -0.000241
    17  H    0.002848   0.001558  -0.001111   0.000408   0.371171   0.326933
    18  F   -0.001991  -0.000594   0.000497  -0.000241   0.326933   8.937147
    19  H    0.002848   0.001558   0.000408  -0.001111  -0.000787   0.000297
    20  F   -0.001991  -0.000594  -0.000241   0.000497   0.000297  -0.000025
              19         20
     1  C    0.016341   0.123616
     2  C   -0.003561  -0.033334
     3  C   -0.001390  -0.022182
     4  C   -0.000951   0.006918
     5  C   -0.001353  -0.022176
     6  C   -0.003480  -0.033433
     7  F    0.013929  -0.008648
     8  H   -0.000634   0.000389
     9  H    0.000051  -0.000753
    10  H   -0.000038   0.000187
    11  H    0.000051  -0.000753
    12  H   -0.000634   0.000396
    13  O    0.002848  -0.001991
    14  C    0.001558  -0.000594
    15  H    0.000408  -0.000241
    16  H   -0.001111   0.000497
    17  H   -0.000787   0.000297
    18  F    0.000297  -0.000025
    19  H    0.371171   0.326933
    20  F    0.326933   8.937147
 Mulliken charges:
               1
     1  C   -0.809558
     2  C    0.160861
     3  C   -0.100307
     4  C   -0.210682
     5  C   -0.099798
     6  C    0.164910
     7  F   -0.160990
     8  H    0.203213
     9  H    0.210931
    10  H    0.184389
    11  H    0.210942
    12  H    0.203106
    13  O   -0.318605
    14  C    0.088351
    15  H    0.128515
    16  H    0.128515
    17  H    0.280353
    18  F   -0.272250
    19  H    0.280353
    20  F   -0.272250
 Sum of Mulliken charges =  -0.00000
 Mulliken charges with hydrogens summed into heavy atoms:
               1
     1  C   -0.809558
     2  C    0.364074
     3  C    0.110625
     4  C   -0.026293
     5  C    0.111144
     6  C    0.368015
     7  F   -0.160990
    13  O   -0.318605
    14  C    0.345382
    18  F    0.008103
    20  F    0.008103
 Electronic spatial extent (au):  <R**2>=           2833.7377
 Charge=             -0.0000 electrons
 Dipole moment (field-independent basis, Debye):
    X=              0.0083    Y=              0.9401    Z=             -0.0000  Tot=              0.9401
 Quadrupole moment (field-independent basis, Debye-Ang):
   XX=            -56.4833   YY=            -29.0254   ZZ=            -86.2542
   XY=              0.0514   XZ=             -0.0000   YZ=              0.0000
 Traceless Quadrupole moment (field-independent basis, Debye-Ang):
   XX=              0.7710   YY=             28.2289   ZZ=            -28.9999
   XY=              0.0514   XZ=             -0.0000   YZ=              0.0000
 Octapole moment (field-independent basis, Debye-Ang**2):
  XXX=             -0.0211  YYY=            152.3577  ZZZ=             -0.0000  XYY=              0.2485
  XXY=              1.2361  XXZ=              0.0000  XZZ=              0.0333  YZZ=              5.5256
  YYZ=             -0.0000  XYZ=             -0.0000
 Hexadecapole moment (field-independent basis, Debye-Ang**3):
 XXXX=           -243.1824 YYYY=          -1458.8699 ZZZZ=          -1017.4260 XXXY=             -0.9999
 XXXZ=             -0.0000 YYYX=              0.3139 YYYZ=             -0.0000 ZZZX=             -0.0000
 ZZZY=             -0.0000 XXYY=           -417.5272 XXZZ=           -173.6792 YYZZ=           -544.0304
 XXYZ=             -0.0000 YYXZ=              0.0000 ZZXY=             -0.3176
 N-N= 5.839088757139D+02 E-N=-2.694666460297D+03  KE= 6.473913785500D+02
 Symmetry A'   KE= 5.273187777350D+02
 Symmetry A"   KE= 1.200726008150D+02
 D1PCM: PCM CHGder 1st derivatives, ID1Alg=3 FixD1E=F DoIter=F DoCFld=F I1PDM=0.
 Calling FoFJK, ICntrl=      2127 FMM=F ISym2X=1 I1Cent= 0 IOpClX= 0 NMat=1 NMatS=1 NMatT=0.
 ***** Axes restored to original set *****
 -------------------------------------------------------------------
 Center     Atomic                   Forces (Hartrees/Bohr)
 Number     Number              X              Y              Z
 -------------------------------------------------------------------
      1        6          -0.082210256    0.000000000   -0.047462000
      2        6          -0.054349114    0.000000000    0.014675329
      3        6           0.002783724    0.000000000    0.037295509
      4        6           0.039050764   -0.000000000    0.022545821
      5        6           0.033690655   -0.000000000   -0.016236722
      6        6          -0.014466421   -0.000000000   -0.054405963
      7        9           0.019209617    0.000000000    0.011094296
      8        1          -0.065561267   -0.000000000    0.036108883
      9        1          -0.001766123    0.000000000    0.073728372
     10        1           0.064243821    0.000000000    0.037091186
     11        1           0.062967595   -0.000000000   -0.038393701
     12        1          -0.001509430   -0.000000000   -0.074832162
     13        8           0.016743858   -0.000000000    0.009659954
     14        6           0.060652598   -0.000000000    0.035347459
     15        1          -0.039064594    0.071435562   -0.022718160
     16        1          -0.039064594   -0.071435562   -0.022718160
     17        1          -0.005286370   -0.031305984   -0.003051972
     18        9           0.004610954    0.028039974    0.002662002
     19        1          -0.005286370    0.031305984   -0.003051972
     20        9           0.004610954   -0.028039974    0.002662002
 -------------------------------------------------------------------
 Cartesian Forces:  Max     0.082210256 RMS     0.034523845
 -----------------------------------------------------------------------------------------------
                       Internal Coordinate Forces (Hartree/Bohr or radian)
  Cent   Atom   N1       Length/X         N2         Alpha/Y        N3         Beta/Z          J
 -----------------------------------------------------------------------------------------------
      1  C 
      2  C        1   0.036571(     1)
      3  C        2   0.152601(     2)      1   0.158460(    20)
      4  C        3   0.221445(     3)      2   0.412367(    21)      1  -0.000000(    38)     0
      5  C        4   0.184874(     4)      3   0.450203(    22)      2  -0.000000(    39)     0
      6  C        5   0.079460(     5)      4   0.253421(    23)      3  -0.000000(    40)     0
      7  F        1  -0.019774(     6)      2   0.000025(    24)      3   0.000000(    41)     0
      8  H        2   0.074832(     7)      3   0.002852(    25)      4  -0.000000(    42)     0
      9  H        3   0.073728(     8)      4   0.003337(    26)      5   0.000000(    43)     0
     10  H        4   0.074182(     9)      5  -0.000000(    27)      6   0.000000(    44)     0
     11  H        5   0.073728(    10)      6  -0.003337(    28)      1  -0.000000(    45)     0
     12  H        6   0.074832(    11)      1  -0.002852(    29)      2  -0.000000(    46)     0
     13  O        7   0.000849(    12)      1  -0.000019(    30)      3   0.000000(    47)     0
     14  C       13   0.020180(    13)      1   0.000105(    31)      2   0.000000(    48)     0
     15  H       14   0.084460(    14)      1   0.006459(    32)      2   0.000118(    49)     0
     16  H       14   0.084460(    15)      1   0.006459(    33)      2  -0.000118(    50)     0
     17  H        7  -0.003081(    16)      1   0.005167(    34)      2   0.000000(    51)     0
     18  F       17   0.028539(    17)      7  -0.000636(    35)      1   0.000000(    52)     0
     19  H        7  -0.003081(    18)      1   0.005167(    36)      2  -0.000000(    53)     0
     20  F       19   0.028539(    19)      7  -0.000636(    37)      1  -0.000000(    54)     0
 -----------------------------------------------------------------------------------------------
 Internal  Forces:  Max     0.450203136 RMS     0.107210431

 GradGradGradGradGradGradGradGradGradGradGradGradGradGradGradGradGradGrad
 Berny optimization.
 Search for a local minimum.
 Step number   1 out of a maximum of   29
 All quantities printed in internal units (Hartrees-Bohrs-Radians)
 Second derivative matrix not updated -- first step.
 The second derivative matrix:
                          d1        d2        d3        d4        d5
           d1           0.95300
           d2          -0.05489   0.95300
           d3          -0.33597   0.33597   1.34386
           d4          -0.28107   0.05489   0.33597   0.95300
           d5           0.05489  -0.28107  -0.33597  -0.05489   0.95300
           d6           0.00000   0.00000  -0.00000  -0.00000  -0.00000
           d7           0.00000   0.00000  -0.00000  -0.00000  -0.00000
           d8          -0.00000  -0.00000   0.00000   0.00000   0.00000
           d9           0.00000   0.00000   0.00000  -0.00000  -0.00000
           d10         -0.00000  -0.00000  -0.00000   0.00000   0.00000
           d11          0.00000  -0.00000  -0.00000  -0.00000  -0.00000
           d12          0.00000   0.00000   0.00000  -0.00000  -0.00000
           d13          0.00000   0.00000   0.00000  -0.00000  -0.00000
           d14         -0.00000  -0.00000   0.00000   0.00000   0.00000
           d15          0.00000   0.00000   0.00000  -0.00000  -0.00000
           d16         -0.00000  -0.00000  -0.00000   0.00000   0.00000
           d17         -0.00000  -0.00000   0.00000   0.00000   0.00000
           d18         -0.00000  -0.00000  -0.00000   0.00000   0.00000
           d19         -0.00000  -0.00000   0.00000   0.00000   0.00000
                          d6        d7        d8        d9        d10
           d6           0.45621
           d7           0.00000   0.47688
           d8          -0.00000   0.00000   0.47688
           d9           0.00000  -0.00000   0.00000   0.47688
           d10          0.00000  -0.00000  -0.00000   0.00000   0.47688
           d11          0.00000  -0.00000   0.00000   0.00000   0.00000
           d12         -0.00000  -0.00000  -0.00000   0.00000   0.00000
           d13         -0.00000  -0.00000  -0.00000   0.00000   0.00000
           d14          0.00000   0.00000   0.00000  -0.00000  -0.00000
           d15         -0.00000  -0.00000  -0.00000   0.00000   0.00000
           d16         -0.00000   0.00000   0.00000  -0.00000  -0.00000
           d17          0.00000   0.00000   0.00000  -0.00000  -0.00000
           d18          0.00000  -0.00000   0.00000  -0.00000  -0.00000
           d19         -0.00000  -0.00000   0.00000  -0.00000  -0.00000
                          d11       d12       d13       d14       d15
           d11          0.47688
           d12          0.00000   0.02330
           d13          0.00000  -0.00000   1.04823
           d14         -0.00000   0.00000   0.00000   0.47688
           d15          0.00000   0.00000  -0.00000   0.00000   0.47688
           d16         -0.00000   0.00000   0.00000   0.00000   0.00000
           d17         -0.00000  -0.00000  -0.00000   0.00000  -0.00000
           d18          0.00000  -0.00000   0.00000   0.00000  -0.00000
           d19          0.00000   0.00000   0.00000  -0.00000   0.00000
                          d16       d17       d18       d19
           d16          0.02721
           d17          0.00000   0.70673
           d18          0.00000   0.00000   0.02721
           d19          0.00000  -0.00000  -0.00000   0.70673
 ITU=  0
     Eigenvalues ---    0.02330   0.02721   0.02721   0.45621   0.47688
     Eigenvalues ---    0.47688   0.47688   0.47688   0.47688   0.47688
     Eigenvalues ---    0.47688   0.67193   0.67193   0.67193   0.70673
     Eigenvalues ---    0.70673   1.04823   1.12429   2.01579
 RFO step:  Lambda=-1.63589709D-01 EMin= 2.33007068D-02
 Linear search not attempted -- first point.
 Maximum step size (   0.300) exceeded in Quadratic search.
    -- Step size scaled by   0.669
 Variable       Old X    -DE/DX   Delta X   Delta X   Delta X     New X
                                 (Linear)    (Quad)   (Total)
    d1        2.45664   0.03657   0.00000   0.07560   0.07560   2.53224
    d2        2.45664   0.15260   0.00000   0.08651   0.08651   2.54315
    d3        2.45664   0.22144   0.00000   0.09535   0.09535   2.55199
    d4        2.45664   0.18487   0.00000   0.10178   0.10178   2.55843
    d5        2.45664   0.07946   0.00000   0.09938   0.09938   2.55602
    d6        2.64562  -0.01977   0.00000  -0.02135  -0.02135   2.62426
    d7        1.88973   0.07483   0.00000   0.07820   0.07820   1.96792
    d8        1.88973   0.07373   0.00000   0.07704   0.07704   1.96677
    d9        1.88973   0.07418   0.00000   0.07752   0.07752   1.96724
   d10        1.88973   0.07373   0.00000   0.07704   0.07704   1.96677
   d11        1.88973   0.07483   0.00000   0.07820   0.07820   1.96792
   d12        5.29123   0.00085   0.00000   0.00304   0.00304   5.29427
   d13        2.26767   0.02018   0.00000   0.01114   0.01114   2.27882
   d14        1.88973   0.08446   0.00000   0.08826   0.08826   1.97798
   d15        1.88973   0.08446   0.00000   0.08826   0.08826   1.97798
   d16        4.34637  -0.00308   0.00000  -0.01081  -0.01081   4.33556
   d17        1.70075   0.02854   0.00000   0.02195   0.02195   1.72270
   d18        4.34637  -0.00308   0.00000  -0.01081  -0.01081   4.33556
   d19        1.70075   0.02854   0.00000   0.02195   0.02195   1.72270
         Item               Value     Threshold  Converged?
 Maximum Force            0.221445     0.000450     NO 
 RMS     Force            0.091319     0.000300     NO 
 Maximum Displacement     0.101784     0.001800     NO 
 RMS     Displacement     0.068825     0.001200     NO 
 Predicted change in Energy=-8.020930D-02
 GradGradGradGradGradGradGradGradGradGradGradGradGradGradGradGradGradGrad

 ---------------------------------------------------------------------------------------------------
                            Z-MATRIX (ANGSTROMS AND DEGREES)
   CD    Cent   Atom    N1       Length/X        N2       Alpha/Y        N3        Beta/Z          J
 ---------------------------------------------------------------------------------------------------
      1      1  C 
      2      2  C        1   1.340004(     1)
      3      3  C        2   1.345777(     2)      1  120.000(    20)
      4      4  C        3   1.350456(     3)      2  120.000(    21)      1    0.000(    38)      0
      5      5  C        4   1.353862(     4)      3  120.000(    22)      2    0.000(    39)      0
      6      6  C        5   1.352589(     5)      4  120.000(    23)      3    0.000(    40)      0
      7      7  F        1   1.388701(     6)      2  120.000(    24)      3  180.000(    41)      0
      8      8  H        2   1.041380(     7)      3  120.000(    25)      4  180.000(    42)      0
      9      9  H        3   1.040769(     8)      4  120.000(    26)      5  180.000(    43)      0
     10     10  H        4   1.041020(     9)      5  120.000(    27)      6  180.000(    44)      0
     11     11  H        5   1.040769(    10)      6  120.000(    28)      1  180.000(    45)      0
     12     12  H        6   1.041380(    11)      1  120.000(    29)      2  180.000(    46)      0
     13     13  O        7   2.801609(    12)      1  179.900(    30)      3  180.000(    47)      0
     14     14  C       13   1.205898(    13)      1  179.900(    31)      2  180.000(    48)      0
     15     15  H       14   1.046704(    14)      1  120.000(    32)      2   90.000(    49)      0
     16     16  H       14   1.046704(    15)      1  120.000(    33)      2  -90.000(    50)      0
     17     17  H        7   2.294281(    16)      1  100.000(    34)      2   90.000(    51)      0
     18     18  F       17   0.911613(    17)      7  160.000(    35)      1    0.000(    52)      0
     19     19  H        7   2.294281(    18)      1  100.000(    36)      2  -90.000(    53)      0
     20     20  F       19   0.911613(    19)      7  160.000(    37)      1    0.000(    54)      0
 ---------------------------------------------------------------------------------------------------
                         Z-Matrix orientation:                         
 ---------------------------------------------------------------------
 Center     Atomic      Atomic             Coordinates (Angstroms)
 Number     Number       Type             X           Y           Z
 ---------------------------------------------------------------------
      1          6           0        0.000000    0.000000    0.000000
      2          6           0        0.000000    0.000000    1.340004
      3          6           0        1.165477    0.000000    2.012893
      4          6           0        2.335006    0.000000    1.337665
      5          6           0        2.335006    0.000000   -0.016197
      6          6           0        1.163630    0.000000   -0.692491
      7          9           0       -1.202650   -0.000000   -0.694350
      8          1           0       -0.901861   -0.000000    1.860694
      9          1           0        1.165477   -0.000000    3.053662
     10          1           0        3.236556   -0.000000    1.858175
     11          1           0        3.236339   -0.000000   -0.536582
     12          1           0        1.149863   -0.000000   -1.733780
     13          8           0       -3.626466   -0.000000   -2.099387
     14          6           0       -4.669044   -0.000000   -2.705375
     15          1           0       -5.121872    0.906472   -2.967756
     16          1           0       -5.121872   -0.906472   -2.967756
     17          1           0       -1.547673    2.259426   -0.893549
     18          9           0       -1.410581    3.157190   -0.814399
     19          1           0       -1.547673   -2.259426   -0.893549
     20          9           0       -1.410581   -3.157190   -0.814399
 ---------------------------------------------------------------------
                    Distance matrix (angstroms):
                    1          2          3          4          5
     1  C    0.000000
     2  C    1.340004   0.000000
     3  C    2.325957   1.345777   0.000000
     4  C    2.691022   2.335007   1.350456   0.000000
     5  C    2.335062   2.700284   2.342008   1.353862   0.000000
     6  C    1.354097   2.342023   2.705385   2.343855   1.352589
     7  F    1.388701   2.363253   3.596831   4.079718   3.602069
     8  H    2.067737   1.041380   2.072933   3.278852   3.741662
     9  H    3.268515   2.072429   1.040769   2.076643   3.285093
    10  H    3.732039   3.277773   2.076850   1.041020   2.079919
    11  H    3.280520   3.741051   3.284553   2.079712   1.040769
    12  H    2.080428   3.281819   3.746706   3.292163   2.086781
    13  O    4.190308   4.998067   6.314552   6.881314   6.314969
    14  C    5.396204   6.177788   7.503578   8.087205   7.502559
    15  H    5.988559   6.753670   8.072132   8.658139   8.070838
    16  H    5.988559   6.753670   8.072132   8.658139   8.070838
    17  H    2.880751   3.533986   4.573138   5.015827   4.577111
    18  F    3.552581   4.074192   4.959587   5.350575   4.963305
    19  H    2.880751   3.533986   4.573138   5.015827   4.577111
    20  F    3.552581   4.074192   4.959587   5.350575   4.963305
                    6          7          8          9         10
     6  C    0.000000
     7  F    2.366281   0.000000
     8  H    3.284054   2.572689   0.000000
     9  H    3.746154   4.433466   2.386852   0.000000
    10  H    3.286780   5.120736   4.138418   2.391351   0.000000
    11  H    2.078565   4.441792   4.782430   4.144674   2.394757
    12  H    1.041380   2.571913   4.138819   4.787468   4.154086
    13  O    4.992432   2.801609   4.806841   7.036806   7.922334
    14  C    6.170233   4.007506   5.919514   8.198057   9.128225
    15  H    6.745817   4.620645   6.476427   8.752709   9.694051
    16  H    6.745817   4.620645   6.476427   8.752709   9.694051
    17  H    3.535052   2.294281   3.620488   5.295910   5.963710
    18  F    4.075447   3.166306   4.169265   5.618347   6.221445
    19  H    3.535052   2.294281   3.620488   5.295910   5.963710
    20  F    4.075447   3.166306   4.169265   5.618347   6.221445
                   11         12         13         14         15
    11  H    0.000000
    12  H    2.405549   0.000000
    13  O    7.038498   4.790302   0.000000
    14  C    8.197484   5.899464   1.205898   0.000000
    15  H    8.751685   6.455931   1.952433   1.046704   0.000000
    16  H    8.751685   6.455931   1.952433   1.046704   1.812944
    17  H    5.302754   3.617692   3.298550   4.258013   4.348300
    18  F    5.624846   4.167611   4.065610   4.915406   4.845240
    19  H    5.302754   3.617692   3.298550   4.258013   5.205780
    20  F    5.624846   4.167611   4.065610   4.915406   5.909651
                   16         17         18         19         20
    16  H    0.000000
    17  H    5.205780   0.000000
    18  F    5.909651   0.911613   0.000000
    19  H    4.348300   4.518852   5.418928   0.000000
    20  F    4.845240   5.418928   6.314379   0.911613   0.000000
 Stoichiometry    C7H9F3O
 Framework group  CS[SG(C7H5FO),X(H4F2)]
 Deg. of freedom    34
 Full point group                 CS      NOp   2
 Largest Abelian subgroup         CS      NOp   2
 Largest concise Abelian subgroup CS      NOp   2
                         Standard orientation:                         
 ---------------------------------------------------------------------
 Center     Atomic      Atomic             Coordinates (Angstroms)
 Number     Number       Type             X           Y           Z
 ---------------------------------------------------------------------
      1          6           0       -0.005338   -0.764356    0.000000
      2          6           0       -1.165816   -1.434358    0.000000
      3          6           0       -1.165816   -2.780135    0.000000
      4          6           0        0.003713   -3.455363    0.000000
      5          6           0        1.176192   -2.778432    0.000000
      6          6           0        1.176192   -1.425843   -0.000000
      7          9           0       -0.005338    0.624345   -0.000000
      8          1           0       -2.067677   -0.913668    0.000000
      9          1           0       -2.067149   -3.300520    0.000000
     10          1           0        0.003713   -4.496383    0.000000
     11          1           0        2.077525   -3.298817   -0.000000
     12          1           0        2.071091   -0.893277   -0.000000
     13          8           0       -0.000449    3.425949   -0.000000
     14          6           0        0.003063    4.631842   -0.000000
     15          1           0        0.003878    5.155193    0.906472
     16          1           0        0.003878    5.155193   -0.906472
     17          1           0       -0.005338    1.022743    2.259426
     18          9           0       -0.005338    0.864443    3.157190
     19          1           0       -0.005338    1.022743   -2.259426
     20          9           0       -0.005338    0.864443   -3.157190
 ---------------------------------------------------------------------
 Rotational constants (GHZ):           1.0666417           0.4820282           0.3726918
 Standard basis: 6-311++G(d,p) (5D, 7F)
 There are   220 symmetry adapted cartesian basis functions of A'  symmetry.
 There are    96 symmetry adapted cartesian basis functions of A"  symmetry.
 There are   210 symmetry adapted basis functions of A'  symmetry.
 There are    95 symmetry adapted basis functions of A"  symmetry.
   305 basis functions,   477 primitive gaussians,   316 cartesian basis functions
    43 alpha electrons       43 beta electrons
       nuclear repulsion energy       573.6753050353 Hartrees.
 NAtoms=   20 NActive=   20 NUniq=   17 SFac= 1.38D+00 NAtFMM=   60 NAOKFM=F Big=F
 Integral buffers will be    131072 words long.
 Raffenetti 2 integral format.
 Two-electron integral symmetry is turned on.
 ------------------------------------------------------------------------------
 Polarizable Continuum Model (PCM)
 =================================
 Model                : PCM.
 Atomic radii         : UFF (Universal Force Field).
 Polarization charges : Total charges.
 Charge compensation  : None.
 Solution method      : On-the-fly selection.
 Cavity type          : Scaled VdW (van der Waals Surface) (Alpha=1.100).
 Cavity algorithm     : GePol (No added spheres)
                        Default sphere list used, NSphG=   20.
                        Lebedev-Laikov grids with approx.  5.0 points / Ang**2.
                        Smoothing algorithm: York/Karplus (Gamma=1.0000).
                        Polarization charges: spherical gaussians, with
                                              point-specific exponents (IZeta= 3).
                        Self-potential: point-specific (ISelfS= 7).
                        Self-field    : sphere-specific E.n sum rule (ISelfD= 2).
 1st derivatives      : Analytical E(r).r(x)/FMM algorithm (CHGder, D1EAlg=3).
                        Cavity 1st derivative terms included.
 Solvent              : DiChloroEthane, Eps=  10.125000 Eps(inf)=   2.087447
 ------------------------------------------------------------------------------
 Spheres list:
 ISph  on   Nord     Re0    Alpha      Xe            Ye            Ze
    1   C      1    1.9255  1.100     -0.005338     -0.764356      0.000000
    2   C      2    1.9255  1.100     -1.165816     -1.434358      0.000000
    3   C      3    1.9255  1.100     -1.165816     -2.780135      0.000000
    4   C      4    1.9255  1.100      0.003713     -3.455363      0.000000
    5   C      5    1.9255  1.100      1.176192     -2.778432      0.000000
    6   C      6    1.9255  1.100      1.176192     -1.425843     -0.000000
    7   F      7    1.6820  1.100     -0.005338      0.624345     -0.000000
    8   H      8    1.4430  1.100     -2.067677     -0.913668      0.000000
    9   H      9    1.4430  1.100     -2.067149     -3.300520      0.000000
   10   H     10    1.4430  1.100      0.003713     -4.496383      0.000000
   11   H     11    1.4430  1.100      2.077525     -3.298817     -0.000000
   12   H     12    1.4430  1.100      2.071091     -0.893277     -0.000000
   13   O     13    1.7500  1.100     -0.000449      3.425949     -0.000000
   14   C     14    1.9255  1.100      0.003063      4.631842     -0.000000
   15   H     15    1.4430  1.100      0.003878      5.155193      0.906472
   16   H     16    1.4430  1.100      0.003878      5.155193     -0.906472
   17   H     17    1.4430  1.100     -0.005338      1.022743      2.259426
   18   F     18    1.6820  1.100     -0.005338      0.864443      3.157190
   19   H     19    1.4430  1.100     -0.005338      1.022743     -2.259426
   20   F     20    1.6820  1.100     -0.005338      0.864443     -3.157190
 ------------------------------------------------------------------------------
 One-electron integrals computed using PRISM.
 NBasis=   305 RedAO= T EigKep=  5.02D-06  NBF=   210    95
 NBsUse=   304 1.00D-06 EigRej=  6.82D-07 NBFU=   209    95
 Initial guess from the checkpoint file:  "/home/lywu/software/g16/scr/Gau-5990.chk"
 B after Tr=     0.000000    0.000000    0.000000
         Rot=    1.000000   -0.000000    0.000000   -0.000826 Ang=  -0.09 deg.
 Initial guess orbital symmetries:
       Occupied  (A') (A') (A") (A') (A') (A') (A') (A') (A') (A')
                 (A') (A') (A") (A') (A') (A') (A') (A') (A') (A')
                 (A') (A') (A") (A') (A") (A') (A') (A") (A') (A')
                 (A') (A') (A') (A") (A") (A') (A") (A') (A') (A')
                 (A") (A") (A")
       Virtual   (A') (A') (A') (A') (A") (A') (A") (A") (A') (A')
                 (A") (A') (A') (A") (A') (A') (A") (A') (A") (A')
                 (A') (A') (A') (A') (A") (A') (A") (A") (A') (A')
                 (A") (A') (A') (A') (A') (A") (A') (A') (A') (A')
                 (A') (A") (A") (A') (A') (A") (A') (A") (A') (A')
                 (A') (A') (A") (A') (A') (A') (A") (A') (A') (A')
                 (A') (A') (A') (A") (A') (A') (A') (A') (A') (A")
                 (A') (A') (A") (A') (A") (A') (A') (A") (A') (A')
                 (A') (A') (A") (A") (A') (A") (A") (A') (A') (A")
                 (A') (A') (A") (A') (A') (A') (A') (A') (A') (A')
                 (A') (A') (A') (A') (A') (A") (A') (A') (A") (A")
                 (A') (A') (A") (A') (A") (A") (A') (A") (A") (A")
                 (A') (A') (A') (A') (A") (A') (A") (A') (A") (A')
                 (A') (A') (A") (A') (A") (A") (A') (A') (A') (A')
                 (A') (A") (A") (A') (A") (A") (A') (A') (A") (A')
                 (A') (A') (A") (A') (A") (A') (A') (A") (A') (A')
                 (A") (A") (A') (A') (A") (A') (A') (A') (A') (A')
                 (A") (A") (A") (A') (A') (A") (A') (A') (A") (A")
                 (A') (A') (A') (A') (A') (A") (A') (A') (A') (A")
                 (A') (A') (A') (A') (A") (A") (A') (A") (A") (A")
                 (A') (A') (A') (A") (A') (A') (A') (A') (A') (A")
                 (A') (A') (A') (A') (A') (A") (A") (A") (A') (A')
                 (A') (A") (A") (A') (A') (A") (A') (A") (A') (A')
                 (A') (A') (A') (A') (A") (A') (A') (A') (A') (A")
                 (A') (A") (A') (A") (A') (A") (A') (A') (A") (A')
                 (A') (A') (A') (A') (A') (A') (A') (A') (A") (A')
                 (A')
 ExpMin= 3.60D-02 ExpMax= 1.14D+04 ExpMxC= 1.72D+03 IAcc=3 IRadAn=         5 AccDes= 0.00D+00
 Harris functional with IExCor= 1009 and IRadAn=       5 diagonalized for initial guess.
 HarFok:  IExCor= 1009 AccDes= 0.00D+00 IRadAn=         5 IDoV= 1 UseB2=F ITyADJ=14
 ICtDFT=  3500011 ScaDFX=  1.000000  1.000000  1.000000  1.000000
 FoFCou: FMM=F IPFlag=           0 FMFlag=      100000 FMFlg1=           0
         NFxFlg=           0 DoJE=T BraDBF=F KetDBF=T FulRan=T
         wScrn=  0.000000 ICntrl=       500 IOpCl=  0 I1Cent=   200000004 NGrid=           0
         NMat0=    1 NMatS0=      1 NMatT0=    0 NMatD0=    1 NMtDS0=    0 NMtDT0=    0
 Petite list used in FoFCou.
 Requested convergence on RMS density matrix=1.00D-08 within 128 cycles.
 Requested convergence on MAX density matrix=1.00D-06.
 Requested convergence on             energy=1.00D-06.
 No special actions if energy rises.
 Inv3:  Mode=1 IEnd=    13432368.
 Iteration    1 A*A^-1 deviation from unit magnitude is 6.44D-15 for   2115.
 Iteration    1 A*A^-1 deviation from orthogonality  is 3.05D-15 for   2115   1645.
 Iteration    1 A^-1*A deviation from unit magnitude is 6.88D-15 for   2115.
 Iteration    1 A^-1*A deviation from orthogonality  is 1.55D-15 for   1778    151.
 Error on total polarization charges =  0.01109
 SCF Done:  E(RM062X) =  -646.818665311     A.U. after   13 cycles
            NFock= 13  Conv=0.35D-08     -V/T= 2.0014
 D1PCM: PCM CHGder 1st derivatives, ID1Alg=3 FixD1E=F DoIter=F DoCFld=F I1PDM=0.
 Calling FoFJK, ICntrl=      2127 FMM=F ISym2X=1 I1Cent= 0 IOpClX= 0 NMat=1 NMatS=1 NMatT=0.
 ***** Axes restored to original set *****
 -------------------------------------------------------------------
 Center     Atomic                   Forces (Hartrees/Bohr)
 Number     Number              X              Y              Z
 -------------------------------------------------------------------
      1        6          -0.024243759    0.000000000   -0.029118057
      2        6          -0.029757017    0.000000000    0.009170764
      3        6           0.008304955   -0.000000000    0.010115247
      4        6           0.012146255   -0.000000000    0.004531626
      5        6           0.005664448    0.000000000   -0.001188301
      6        6          -0.010607580    0.000000000   -0.016606577
      7        9           0.016217119    0.000000000    0.010260514
      8        1          -0.030046793    0.000000000    0.015461748
      9        1          -0.001384616   -0.000000000    0.033218041
     10        1           0.028959609   -0.000000000    0.016530304
     11        1           0.028073628   -0.000000000   -0.017865277
     12        1          -0.001348473   -0.000000000   -0.033359570
     13        8           0.003004626   -0.000000000    0.001675280
     14        6           0.036351384   -0.000000000    0.021278755
     15        1          -0.019974332    0.032013471   -0.011651398
     16        1          -0.019974332   -0.032013471   -0.011651398
     17        1          -0.002984427   -0.016096617   -0.001724880
     18        9           0.002291867    0.012986554    0.001324029
     19        1          -0.002984427    0.016096617   -0.001724880
     20        9           0.002291867   -0.012986554    0.001324029
 -------------------------------------------------------------------
 Cartesian Forces:  Max     0.036351384 RMS     0.015766131
 -----------------------------------------------------------------------------------------------
                       Internal Coordinate Forces (Hartree/Bohr or radian)
  Cent   Atom   N1       Length/X         N2         Alpha/Y        N3         Beta/Z          J
 -----------------------------------------------------------------------------------------------
      1  C 
      2  C        1   0.019408(     1)
      3  C        2   0.057535(     2)      1   0.026457(    20)
      4  C        3   0.078432(     3)      2   0.123061(    21)      1   0.000000(    38)     0
      5  C        4   0.069619(     4)      3   0.147865(    22)      2   0.000000(    39)     0
      6  C        5   0.035946(     5)      4   0.093373(    23)      3   0.000000(    40)     0
      7  F        1  -0.016887(     6)      2  -0.001993(    24)      3   0.000000(    41)     0
      8  H        2   0.033752(     7)      3   0.003214(    25)      4   0.000000(    42)     0
      9  H        3   0.033218(     8)      4   0.002723(    26)      5  -0.000000(    43)     0
     10  H        4   0.033345(     9)      5  -0.000323(    27)      6  -0.000000(    44)     0
     11  H        5   0.033245(    10)      6  -0.002822(    28)      1  -0.000000(    45)     0
     12  H        6   0.033374(    11)      1  -0.001786(    29)      2  -0.000000(    46)     0
     13  O        7   0.000688(    12)      1  -0.000025(    30)      3   0.000000(    47)     0
     14  C       13   0.004127(    13)      1   0.000102(    31)      2   0.000000(    48)     0
     15  H       14   0.039287(    14)      1   0.007950(    32)      2   0.000115(    49)     0
     16  H       14   0.039287(    15)      1   0.007950(    33)      2  -0.000115(    50)     0
     17  H        7  -0.002924(    16)      1   0.005152(    34)      2   0.000002(    51)     0
     18  F       17   0.013249(    17)      7  -0.000606(    35)      1  -0.000000(    52)     0
     19  H        7  -0.002924(    18)      1   0.005152(    36)      2  -0.000002(    53)     0
     20  F       19   0.013249(    19)      7  -0.000606(    37)      1   0.000000(    54)     0
 -----------------------------------------------------------------------------------------------
 Internal  Forces:  Max     0.147865000 RMS     0.036501826

 GradGradGradGradGradGradGradGradGradGradGradGradGradGradGradGradGradGrad
 Berny optimization.
 Search for a local minimum.
 Step number   2 out of a maximum of   29
 All quantities printed in internal units (Hartrees-Bohrs-Radians)
 Update second derivatives using D2CorN and points    1    2
 DE= -7.62D-02 DEPred=-8.02D-02 R= 9.50D-01
 TightC=F SS=  1.41D+00  RLast= 3.00D-01 DXNew= 5.0454D-01 9.0000D-01
 Trust test= 9.50D-01 RLast= 3.00D-01 DXMaxT set to 5.05D-01
 The second derivative matrix:
                          d1        d2        d3        d4        d5
           d1           0.95725
           d2          -0.04949   0.95981
           d3          -0.32892   0.34472   1.35489
           d4          -0.27478   0.06283   0.34618   0.96225
           d5           0.06045  -0.27399  -0.32673  -0.04665   0.96028
           d6           0.00228   0.00245   0.00240   0.00291   0.00300
           d7           0.00379   0.00490   0.00653   0.00569   0.00496
           d8           0.00375   0.00485   0.00645   0.00563   0.00490
           d9           0.00380   0.00491   0.00653   0.00571   0.00498
           d10          0.00374   0.00483   0.00644   0.00562   0.00489
           d11          0.00395   0.00508   0.00673   0.00591   0.00516
           d12          0.00012   0.00016   0.00022   0.00019   0.00016
           d13          0.00215   0.00254   0.00296   0.00298   0.00282
           d14          0.00377   0.00496   0.00674   0.00575   0.00494
           d15          0.00377   0.00496   0.00674   0.00575   0.00494
           d16         -0.00025  -0.00036  -0.00055  -0.00041  -0.00032
           d17          0.00052   0.00076   0.00115   0.00087   0.00068
           d18         -0.00025  -0.00036  -0.00055  -0.00041  -0.00032
           d19          0.00052   0.00076   0.00115   0.00087   0.00068
                          d6        d7        d8        d9        d10
           d6           0.45458
           d7           0.00253   0.48018
           d8           0.00249   0.00326   0.48011
           d9           0.00249   0.00331   0.00328   0.48022
           d10          0.00249   0.00325   0.00322   0.00327   0.48009
           d11          0.00248   0.00346   0.00342   0.00348   0.00341
           d12          0.00011   0.00010   0.00010   0.00010   0.00010
           d13         -0.00009   0.00213   0.00210   0.00212   0.00210
           d14          0.00299   0.00320   0.00317   0.00323   0.00316
           d15          0.00299   0.00320   0.00317   0.00323   0.00316
           d16         -0.00043  -0.00017  -0.00017  -0.00017  -0.00017
           d17          0.00086   0.00037   0.00037   0.00038   0.00036
           d18         -0.00043  -0.00017  -0.00017  -0.00017  -0.00017
           d19          0.00086   0.00037   0.00037   0.00038   0.00036
                          d11       d12       d13       d14       d15
           d11          0.48050
           d12          0.00011   0.02330
           d13          0.00216   0.00008   1.04877
           d14          0.00338   0.00010   0.00233   0.47991
           d15          0.00338   0.00010   0.00233   0.00303   0.47991
           d16         -0.00019  -0.00000  -0.00025  -0.00012  -0.00012
           d17          0.00041   0.00001   0.00052   0.00027   0.00027
           d18         -0.00019  -0.00000  -0.00025  -0.00012  -0.00012
           d19          0.00041   0.00001   0.00052   0.00027   0.00027
                          d16       d17       d18       d19
           d16          0.02719
           d17          0.00003   0.70667
           d18         -0.00002   0.00003   0.02719
           d19          0.00003  -0.00005   0.00003   0.70667
 ITU=  1  0
     Eigenvalues ---    0.02330   0.02717   0.02721   0.45349   0.47676
     Eigenvalues ---    0.47688   0.47688   0.47688   0.47688   0.47688
     Eigenvalues ---    0.49678   0.67187   0.67193   0.70441   0.70673
     Eigenvalues ---    0.70914   1.04892   1.12461   2.02304
 RFO step:  Lambda=-4.26076258D-03 EMin= 2.33034058D-02
 Quartic linear search produced a step of  0.90801.
 Variable       Old X    -DE/DX   Delta X   Delta X   Delta X     New X
                                 (Linear)    (Quad)   (Total)
    d1        2.53224   0.01941   0.06864   0.00269   0.07134   2.60358
    d2        2.54315   0.05753   0.07855  -0.00913   0.06942   2.61257
    d3        2.55199   0.07843   0.08658  -0.02265   0.06393   2.61592
    d4        2.55843   0.06962   0.09242  -0.01281   0.07961   2.63804
    d5        2.55602   0.03595   0.09024  -0.00094   0.08930   2.64532
    d6        2.62426  -0.01689  -0.01939  -0.03830  -0.05769   2.56657
    d7        1.96792   0.03375   0.07100   0.01517   0.08617   2.05410
    d8        1.96677   0.03322   0.06996   0.01480   0.08476   2.05152
    d9        1.96724   0.03334   0.07039   0.01457   0.08496   2.05220
   d10        1.96677   0.03325   0.06996   0.01491   0.08487   2.05163
   d11        1.96792   0.03337   0.07100   0.01363   0.08464   2.05256
   d12        5.29427   0.00069   0.00276   0.03504   0.03780   5.33208
   d13        2.27882   0.00413   0.01012  -0.00865   0.00147   2.28029
   d14        1.97798   0.03929   0.08014   0.02198   0.10212   2.08010
   d15        1.97798   0.03929   0.08014   0.02198   0.10212   2.08010
   d16        4.33556  -0.00292  -0.00981  -0.13711  -0.14693   4.18864
   d17        1.72270   0.01325   0.01993   0.00348   0.02341   1.74611
   d18        4.33556  -0.00292  -0.00981  -0.13711  -0.14693   4.18864
   d19        1.72270   0.01325   0.01993   0.00348   0.02341   1.74611
         Item               Value     Threshold  Converged?
 Maximum Force            0.078432     0.000450     NO 
 RMS     Force            0.036497     0.000300     NO 
 Maximum Displacement     0.146926     0.001800     NO 
 RMS     Displacement     0.084101     0.001200     NO 
 Predicted change in Energy=-1.548733D-02
 GradGradGradGradGradGradGradGradGradGradGradGradGradGradGradGradGradGrad

 ---------------------------------------------------------------------------------------------------
                            Z-MATRIX (ANGSTROMS AND DEGREES)
   CD    Cent   Atom    N1       Length/X        N2       Alpha/Y        N3        Beta/Z          J
 ---------------------------------------------------------------------------------------------------
      1      1  C 
      2      2  C        1   1.377755(     1)
      3      3  C        2   1.382513(     2)      1  120.000(    20)
      4      4  C        3   1.384284(     3)      2  120.000(    21)      1    0.000(    38)      0
      5      5  C        4   1.395989(     4)      3  120.000(    22)      2    0.000(    39)      0
      6      6  C        5   1.399844(     5)      4  120.000(    23)      3    0.000(    40)      0
      7      7  F        1   1.358172(     6)      2  120.000(    24)      3  180.000(    41)      0
      8      8  H        2   1.086981(     7)      3  120.000(    25)      4  180.000(    42)      0
      9      9  H        3   1.085620(     8)      4  120.000(    26)      5  180.000(    43)      0
     10     10  H        4   1.085980(     9)      5  120.000(    27)      6  180.000(    44)      0
     11     11  H        5   1.085678(    10)      6  120.000(    28)      1  180.000(    45)      0
[...]
    17  H    3.226917   1.859701   3.359610   5.141989   5.837127
    18  F    3.721571   2.747866   3.858845   5.408450   6.040393
    19  H    3.226917   1.859701   3.359610   5.141989   5.837127
    20  F    3.721571   2.747866   3.858845   5.408450   6.040393
                   11         12         13         14         15
    11  H    0.000000
    12  H    2.506322   0.000000
    13  O    6.993833   4.667140   0.000000
    14  C    8.147476   5.762995   1.204541   0.000000
    15  H    8.731528   6.349156   1.997044   1.100667   0.000000
    16  H    8.731528   6.349156   1.997044   1.100667   1.906410
    17  H    5.149177   3.342625   2.981143   4.000608   4.199960
    18  F    5.415433   3.846008   3.720152   4.620003   4.627982
    19  H    5.149177   3.342625   2.981143   4.000608   4.962121
    20  F    5.415433   3.846008   3.720152   4.620003   5.645978
                   16         17         18         19         20
    16  H    0.000000
    17  H    4.962121   0.000000
    18  F    5.645978   0.925692   0.000000
    19  H    4.199960   3.662895   4.577347   0.000000
    20  F    4.627982   4.577347   5.486152   0.925692   0.000000
 Stoichiometry    C7H9F3O
 Framework group  CS[SG(C7H5FO),X(H4F2)]
 Deg. of freedom    34
 Full point group                 CS      NOp   2
 Largest Abelian subgroup         CS      NOp   2
 Largest concise Abelian subgroup CS      NOp   2
                         Standard orientation:                         
 ---------------------------------------------------------------------
 Center     Atomic      Atomic             Coordinates (Angstroms)
 Number     Number       Type             X           Y           Z
 ---------------------------------------------------------------------
      1          6           0       -0.006267   -0.699385   -0.000000
      2          6           0       -1.197458   -1.387119   -0.000000
      3          6           0       -1.197458   -2.768619   -0.000000
      4          6           0        0.003137   -3.461783   -0.000000
      5          6           0        1.212305   -2.763670   -0.000000
      6          6           0        1.212305   -1.363275    0.000000
      7          9           0       -0.006267    0.674697    0.000000
      8          1           0       -2.136374   -0.845036   -0.000000
      9          1           0       -2.134940   -3.309874   -0.000000
     10          1           0        0.003137   -4.544730   -0.000000
     11          1           0        2.149709   -3.304880    0.000000
     12          1           0        2.136752   -0.798591    0.000000
     13          8           0       -0.001598    3.349862    0.000000
     14          6           0        0.001893    4.554398    0.000000
     15          1           0        0.002748    5.104730    0.953205
     16          1           0        0.002748    5.104730   -0.953205
     17          1           0       -0.006267    0.997630    1.831448
     18          9           0       -0.006267    0.836886    2.743076
     19          1           0       -0.006267    0.997630   -1.831448
     20          9           0       -0.006267    0.836886   -2.743076
 ---------------------------------------------------------------------
 Rotational constants (GHZ):           1.3207724           0.4910345           0.4090251

 **********************************************************************

            Population analysis using the SCF Density.

 **********************************************************************

 Orbital symmetries:
       Occupied  (A') (A') (A") (A') (A') (A') (A') (A') (A') (A')
                 (A') (A') (A") (A') (A') (A') (A') (A') (A') (A')
                 (A') (A") (A') (A') (A') (A") (A') (A") (A') (A')
                 (A') (A') (A") (A") (A') (A') (A') (A") (A') (A')
                 (A") (A") (A")
       Virtual   (A') (A') (A") (A") (A') (A') (A') (A") (A') (A')
                 (A") (A') (A') (A') (A") (A") (A') (A') (A') (A")
                 (A') (A') (A') (A') (A') (A") (A") (A') (A") (A')
                 (A") (A') (A') (A') (A') (A') (A') (A") (A') (A")
                 (A') (A') (A") (A') (A') (A') (A") (A') (A') (A")
                 (A') (A') (A') (A') (A") (A') (A') (A') (A') (A")
                 (A') (A') (A') (A') (A') (A') (A") (A') (A') (A")
                 (A') (A') (A') (A') (A") (A') (A') (A") (A") (A')
                 (A') (A') (A") (A') (A") (A') (A") (A") (A') (A")
                 (A') (A') (A') (A') (A") (A') (A') (A') (A') (A')
                 (A') (A') (A') (A') (A') (A') (A") (A') (A') (A")
                 (A') (A") (A") (A") (A') (A") (A') (A") (A") (A')
                 (A") (A') (A') (A') (A") (A') (A") (A") (A") (A')
                 (A") (A') (A') (A') (A') (A') (A') (A") (A") (A')
                 (A") (A') (A') (A') (A') (A') (A") (A") (A') (A")
                 (A') (A") (A') (A') (A') (A") (A') (A") (A") (A')
                 (A') (A") (A') (A') (A") (A') (A') (A") (A') (A')
                 (A') (A") (A') (A') (A") (A') (A") (A") (A') (A')
                 (A') (A") (A') (A") (A') (A') (A') (A') (A') (A')
                 (A") (A') (A') (A') (A') (A") (A') (A") (A') (A")
                 (A") (A") (A') (A') (A") (A') (A') (A') (A') (A')
                 (A') (A') (A') (A") (A') (A") (A') (A") (A") (A")
                 (A') (A') (A') (A") (A') (A') (A') (A") (A') (A')
                 (A") (A') (A') (A') (A') (A') (A") (A') (A') (A")
                 (A') (A") (A') (A") (A') (A") (A') (A') (A') (A")
                 (A') (A') (A') (A') (A') (A') (A') (A') (A') (A")
                 (A')
 The electronic state is 1-A'.
 Alpha  occ. eigenvalues --  -25.29659 -25.22810 -25.22810 -19.64751 -10.64849
 Alpha  occ. eigenvalues --  -10.64061 -10.56799 -10.56532 -10.56480 -10.56223
 Alpha  occ. eigenvalues --  -10.55769  -1.40997  -1.33888  -1.33810  -1.19429
 Alpha  occ. eigenvalues --   -0.98817  -0.87003  -0.86759  -0.72962  -0.72594
 Alpha  occ. eigenvalues --   -0.72061  -0.66331  -0.65275  -0.63556  -0.60011
 Alpha  occ. eigenvalues --   -0.58926  -0.58800  -0.58475  -0.54070  -0.52906
 Alpha  occ. eigenvalues --   -0.51611  -0.51256  -0.51244  -0.51214  -0.51140
 Alpha  occ. eigenvalues --   -0.50603  -0.47929  -0.45704  -0.44486  -0.42403
 Alpha  occ. eigenvalues --   -0.35075  -0.33041  -0.32530
 Alpha virt. eigenvalues --   -0.00940  -0.00284  -0.00081   0.00541   0.00731
 Alpha virt. eigenvalues --    0.01335   0.02091   0.02117   0.03298   0.03578
 Alpha virt. eigenvalues --    0.04706   0.05782   0.07009   0.07698   0.07787
 Alpha virt. eigenvalues --    0.09063   0.09210   0.10566   0.11418   0.11648
 Alpha virt. eigenvalues --    0.12342   0.12679   0.13160   0.13377   0.13709
 Alpha virt. eigenvalues --    0.13943   0.14131   0.14566   0.14733   0.15209
 Alpha virt. eigenvalues --    0.16128   0.16920   0.16955   0.17820   0.18430
 Alpha virt. eigenvalues --    0.20137   0.20276   0.21193   0.21509   0.21733
 Alpha virt. eigenvalues --    0.21930   0.22914   0.24371   0.25990   0.26723
 Alpha virt. eigenvalues --    0.28084   0.28347   0.29283   0.29566   0.30475
 Alpha virt. eigenvalues --    0.30652   0.31451   0.32215   0.32277   0.33224
 Alpha virt. eigenvalues --    0.33458   0.34531   0.35448   0.36521   0.37211
 Alpha virt. eigenvalues --    0.38372   0.38468   0.40030   0.42584   0.43476
 Alpha virt. eigenvalues --    0.44019   0.44207   0.45584   0.50740   0.50760
 Alpha virt. eigenvalues --    0.51722   0.52643   0.55201   0.56640   0.56698
 Alpha virt. eigenvalues --    0.57818   0.58119   0.58938   0.59246   0.59858
 Alpha virt. eigenvalues --    0.60507   0.61102   0.61152   0.63130   0.64019
 Alpha virt. eigenvalues --    0.64115   0.65145   0.68214   0.69039   0.73295
 Alpha virt. eigenvalues --    0.73686   0.74749   0.76381   0.77366   0.78148
 Alpha virt. eigenvalues --    0.80987   0.82731   0.85038   0.87475   0.87915
 Alpha virt. eigenvalues --    0.89524   0.91211   0.93049   0.94579   0.95813
 Alpha virt. eigenvalues --    1.02437   1.03943   1.04785   1.05470   1.06320
 Alpha virt. eigenvalues --    1.06401   1.06434   1.11727   1.16294   1.17033
 Alpha virt. eigenvalues --    1.17693   1.22279   1.23188   1.25537   1.31882
 Alpha virt. eigenvalues --    1.32361   1.33586   1.34551   1.36854   1.36992
 Alpha virt. eigenvalues --    1.39865   1.43566   1.44799   1.45341   1.47753
 Alpha virt. eigenvalues --    1.48506   1.48679   1.49643   1.51426   1.51832
 Alpha virt. eigenvalues --    1.55308   1.56320   1.59645   1.60150   1.60835
 Alpha virt. eigenvalues --    1.60992   1.61091   1.62903   1.67933   1.68743
 Alpha virt. eigenvalues --    1.69435   1.69640   1.72044   1.76893   1.76904
 Alpha virt. eigenvalues --    1.78107   1.79561   1.80864   1.85968   1.87347
 Alpha virt. eigenvalues --    1.90049   1.91185   1.93947   1.94235   1.95551
 Alpha virt. eigenvalues --    1.96065   1.96898   1.98887   1.99492   2.01264
 Alpha virt. eigenvalues --    2.04311   2.07165   2.09801   2.10242   2.12883
 Alpha virt. eigenvalues --    2.17377   2.29281   2.30053   2.33342   2.34837
 Alpha virt. eigenvalues --    2.43769   2.44396   2.45697   2.47873   2.48195
 Alpha virt. eigenvalues --    2.52614   2.53409   2.53936   2.57407   2.61157
 Alpha virt. eigenvalues --    2.65963   2.67276   2.70193   2.72396   2.72742
 Alpha virt. eigenvalues --    2.73469   2.74617   2.75038   2.77237   2.79087
 Alpha virt. eigenvalues --    2.83576   2.85283   2.86823   2.89764   2.93556
 Alpha virt. eigenvalues --    2.94158   2.94668   2.97822   3.00507   3.14188
 Alpha virt. eigenvalues --    3.18376   3.25878   3.38681   3.38949   3.42971
 Alpha virt. eigenvalues --    3.48252   3.52606   3.55986   3.56684   3.66957
 Alpha virt. eigenvalues --    3.75284   3.78848   3.83773   3.89083   3.89391
 Alpha virt. eigenvalues --    3.89526   3.89762   3.93281   4.01880   4.02497
 Alpha virt. eigenvalues --    4.07363   4.08898   4.12395   4.13218   4.14231
 Alpha virt. eigenvalues --    4.15158   4.16304   4.17664   4.21646   4.85242
 Alpha virt. eigenvalues --    4.88650   4.89454   4.92125   5.11140   5.22038
 Alpha virt. eigenvalues --    5.80131   6.41844   6.42759   6.48323   6.48408
 Alpha virt. eigenvalues --    6.58431   6.58754   6.79573   6.90845   6.95156
 Alpha virt. eigenvalues --   23.68702  23.99855  24.01660  24.04791  24.15366
 Alpha virt. eigenvalues --   24.16587  24.27303  50.05366  66.90374  66.91903
 Alpha virt. eigenvalues --   66.94686
          Condensed to atoms (all electrons):
               1          2          3          4          5          6
     1  C   13.402379  -1.677880  -2.466704  -0.220164  -2.015056  -0.993405
     2  C   -1.677880  12.989877   2.278420  -0.761526  -0.741729  -6.265392
     3  C   -2.466704   2.278420   7.083055   0.414228  -0.271392  -1.072724
     4  C   -0.220164  -0.761526   0.414228   6.681794   0.350296  -0.577096
     5  C   -2.015056  -0.741729  -0.271392   0.350296   6.726980   1.920270
     6  C   -0.993405  -6.265392  -1.072724  -0.577096   1.920270  12.808721
     7  F    0.439583  -0.243438  -0.037724   0.006750  -0.034185  -0.238476
     8  H   -0.076201   0.476299  -0.053002  -0.006321   0.012408  -0.026791
     9  H   -0.028290  -0.021062   0.416025  -0.085433   0.013208   0.030936
    10  H    0.042914  -0.018741  -0.078902   0.482694  -0.076142  -0.014337
    11  H   -0.022975   0.035897   0.012515  -0.086876   0.411868  -0.025922
    12  H   -0.075672  -0.028504   0.010092  -0.003101  -0.049729   0.473279
    13  O    0.070677  -0.022448  -0.001315  -0.000676  -0.000947  -0.020977
    14  C   -0.000754  -0.001592  -0.000010   0.000035  -0.000041  -0.001507
    15  H   -0.000591   0.000190   0.000018  -0.000010   0.000016   0.000184
    16  H   -0.000591   0.000190   0.000018  -0.000010   0.000016   0.000184
    17  H    0.018437  -0.004709  -0.001463  -0.003316  -0.000932  -0.004433
    18  F    0.141449  -0.039463  -0.022383   0.009048  -0.021299  -0.037677
    19  H    0.018437  -0.004709  -0.001463  -0.003316  -0.000932  -0.004433
    20  F    0.141449  -0.039463  -0.022383   0.009048  -0.021299  -0.037677
               7          8          9         10         11         12
     1  C    0.439583  -0.076201  -0.028290   0.042914  -0.022975  -0.075672
     2  C   -0.243438   0.476299  -0.021062  -0.018741   0.035897  -0.028504
     3  C   -0.037724  -0.053002   0.416025  -0.078902   0.012515   0.010092
     4  C    0.006750  -0.006321  -0.085433   0.482694  -0.086876  -0.003101
     5  C   -0.034185   0.012408   0.013208  -0.076142   0.411868  -0.049729
     6  C   -0.238476  -0.026791   0.030936  -0.014337  -0.025922   0.473279
     7  F    9.213147  -0.014060  -0.000820   0.000457  -0.000926  -0.013531
     8  H   -0.014060   0.456526  -0.003867   0.000899   0.001218   0.000999
     9  H   -0.000820  -0.003867   0.444028  -0.008852   0.001521   0.001120
    10  H    0.000457   0.000899  -0.008852   0.461984  -0.008491   0.000907
    11  H   -0.000926   0.001218   0.001521  -0.008491   0.442845  -0.003272
    12  H   -0.013531   0.000999   0.001120   0.000907  -0.003272   0.454009
    13  O    0.001901   0.001677   0.000030  -0.000005   0.000029   0.001732
    14  C    0.000959  -0.000281   0.000004   0.000002   0.000003  -0.000259
    15  H   -0.000397  -0.000025   0.000002  -0.000000   0.000002  -0.000027
    16  H   -0.000397  -0.000025   0.000002  -0.000000   0.000002  -0.000027
    17  H    0.019873  -0.000940   0.000220  -0.000112   0.000214  -0.000935
    18  F   -0.009497  -0.000693  -0.000803   0.000120  -0.000801  -0.000723
    19  H    0.019873  -0.000940   0.000220  -0.000112   0.000214  -0.000935
    20  F   -0.009497  -0.000693  -0.000803   0.000120  -0.000801  -0.000723
              13         14         15         16         17         18
     1  C    0.070677  -0.000754  -0.000591  -0.000591   0.018437   0.141449
     2  C   -0.022448  -0.001592   0.000190   0.000190  -0.004709  -0.039463
     3  C   -0.001315  -0.000010   0.000018   0.000018  -0.001463  -0.022383
     4  C   -0.000676   0.000035  -0.000010  -0.000010  -0.003316   0.009048
     5  C   -0.000947  -0.000041   0.000016   0.000016  -0.000932  -0.021299
     6  C   -0.020977  -0.001507   0.000184   0.000184  -0.004433  -0.037677
     7  F    0.001901   0.000959  -0.000397  -0.000397   0.019873  -0.009497
     8  H    0.001677  -0.000281  -0.000025  -0.000025  -0.000940  -0.000693
     9  H    0.000030   0.000004   0.000002   0.000002   0.000220  -0.000803
    10  H   -0.000005   0.000002  -0.000000  -0.000000  -0.000112   0.000120
    11  H    0.000029   0.000003   0.000002   0.000002   0.000214  -0.000801
    12  H    0.001732  -0.000259  -0.000027  -0.000027  -0.000935  -0.000723
    13  O    8.184785   0.236665  -0.089991  -0.089991   0.002502  -0.001646
    14  C    0.236665   4.925472   0.412625   0.412625   0.001297  -0.001052
    15  H   -0.089991   0.412625   0.619349  -0.084764  -0.000646   0.000240
    16  H   -0.089991   0.412625  -0.084764   0.619349   0.000322  -0.000148
    17  H    0.002502   0.001297  -0.000646   0.000322   0.383042   0.317668
    18  F   -0.001646  -0.001052   0.000240  -0.000148   0.317668   8.937697
    19  H    0.002502   0.001297   0.000322  -0.000646  -0.004445   0.001541
    20  F   -0.001646  -0.001052  -0.000148   0.000240   0.001541  -0.000188
              19         20
     1  C    0.018437   0.141449
     2  C   -0.004709  -0.039463
     3  C   -0.001463  -0.022383
     4  C   -0.003316   0.009048
     5  C   -0.000932  -0.021299
     6  C   -0.004433  -0.037677
     7  F    0.019873  -0.009497
     8  H   -0.000940  -0.000693
     9  H    0.000220  -0.000803
    10  H   -0.000112   0.000120
    11  H    0.000214  -0.000801
    12  H   -0.000935  -0.000723
    13  O    0.002502  -0.001646
    14  C    0.001297  -0.001052
    15  H    0.000322  -0.000148
    16  H   -0.000646   0.000240
    17  H   -0.004445   0.001541
    18  F    0.001541  -0.000188
    19  H    0.383042   0.317668
    20  F    0.317668   8.937697
 Mulliken charges:
               1
     1  C   -0.697041
     2  C    0.089782
     3  C   -0.184907
     4  C   -0.206050
     5  C   -0.201379
     6  C    0.087273
     7  F   -0.099597
     8  H    0.233813
     9  H    0.242614
    10  H    0.215595
    11  H    0.243738
    12  H    0.235300
    13  O   -0.272856
    14  C    0.015564
    15  H    0.143650
    16  H    0.143650
    17  H    0.276815
    18  F   -0.271390
    19  H    0.276815
    20  F   -0.271390
 Sum of Mulliken charges =  -0.00000
 Mulliken charges with hydrogens summed into heavy atoms:
               1
     1  C   -0.697041
     2  C    0.323595
     3  C    0.057708
     4  C    0.009545
     5  C    0.042360
     6  C    0.322573
     7  F   -0.099597
    13  O   -0.272856
    14  C    0.302865
    18  F    0.005425
    20  F    0.005425
 Electronic spatial extent (au):  <R**2>=           2681.6226
 Charge=             -0.0000 electrons
 Dipole moment (field-independent basis, Debye):
    X=             -0.0053    Y=              0.7713    Z=             -0.0000  Tot=              0.7713
 Quadrupole moment (field-independent basis, Debye-Ang):
   XX=            -55.8916   YY=            -28.9261   ZZ=            -85.8678
   XY=              0.1571   XZ=             -0.0000   YZ=              0.0000
 Traceless Quadrupole moment (field-independent basis, Debye-Ang):
   XX=              1.0035   YY=             27.9691   ZZ=            -28.9726
   XY=              0.1571   XZ=             -0.0000   YZ=              0.0000
 Octapole moment (field-independent basis, Debye-Ang**2):
  XXX=             -0.2044  YYY=            139.3409  ZZZ=             -0.0000  XYY=             -0.1974
  XXY=             -1.3252  XXZ=              0.0000  XZZ=             -0.0641  YZZ=             11.1448
  YYZ=              0.0000  XYZ=             -0.0000
 Hexadecapole moment (field-independent basis, Debye-Ang**3):
 XXXX=           -268.4477 YYYY=          -1487.7269 ZZZZ=           -756.1983 XXXY=              1.0935
 XXXZ=              0.0000 YYYX=              1.8229 YYYZ=              0.0000 ZZZX=              0.0000
 ZZZY=             -0.0000 XXYY=           -422.2021 XXZZ=           -156.5821 YYZZ=           -527.2089
 XXYZ=             -0.0000 YYXZ=             -0.0000 ZZXY=              0.5716
 N-N= 5.865079676939D+02 E-N=-2.697857487939D+03  KE= 6.448120114971D+02
 Symmetry A'   KE= 5.251883078331D+02
 Symmetry A"   KE= 1.196237036640D+02
 1\1\GINC-LOCALHOST\POpt\RM062X\6-311++G(d,p)\C7H9F3O1\LYWU\06-Jan-2025
 \1\\# m062x 6-311++G(d,p) opt=z-matrix scrf=(solvent=dichloroethane)\\
 test\\0,1\C\C,1,d1\C,2,d2,1,120.\C,3,d3,2,120.,1,0.,0\C,4,d4,3,120.,2,
 0.,0\C,5,d5,4,120.,3,0.,0\F,1,d6,2,120.,3,180.,0\H,2,d7,3,120.,4,180.,
 0\H,3,d8,4,120.,5,180.,0\H,4,d9,5,120.,6,180.,0\H,5,d10,6,120.,1,180.,
 0\H,6,d11,1,120.,2,180.,0\O,7,d12,1,179.9,3,180.,0\C,13,d13,1,179.9,2,
 180.,0\H,14,d14,1,120.,2,90.,0\H,14,d15,1,120.,2,-90.,0\H,7,d16,1,100.
 ,2,90.,0\F,17,d17,7,160.,1,0.,0\H,7,d18,1,100.,2,-90.,0\F,19,d19,7,160
 .,1,0.,0\\d1=1.37546934\d2=1.38149979\d3=1.38632813\d4=1.39622716\d5=1
 .40039491\d6=1.37408154\d7=1.08416644\d8=1.08251041\d9=1.08294721\d10=
 1.08242053\d11=1.08326784\d12=2.67516881\d13=1.20454139\d14=1.10066653
 \d15=1.10066653\d16=1.85970062\d17=0.92569154\d18=1.85970062\d19=0.925
 69154\\Version=ES64L-G16RevB.01\State=1-A'\HF=-646.8424684\RMSD=8.055e
 -09\RMSF=4.567e-03\Dipole=-0.2638501,0.,-0.1499187\Quadrupole=15.68111
 ,-21.540446,5.8593361,0.,8.7395662,0.\PG=CS [SG(C7H5F1O1),X(H4F2)]\\@


 A DANDELION FROM A LOVER MEANS MORE THAN AN ORCHID FROM A FRIEND.
 Job cpu time:       0 days  0 hours 58 minutes 32.2 seconds.
 Elapsed time:       0 days  0 hours 29 minutes 20.5 seconds.
 File lengths (MBytes):  RWF=    202 Int=      0 D2E=      0 Chk=     11 Scr=      1
 Normal termination of Gaussian 16 at Mon Jan  6 19:12:04 2025.
