 Entering Gaussian System, Link 0=g16
 Input=model_H1.gjf
 Output=model_H1.log
 Initial command:
 /home/lywu/software/g16/l1.exe "/home/lywu/software/g16/scr/Gau-5970.inp" -scrdir="/home/lywu/software/g16/scr/"
 Entering Link 1 = /home/lywu/software/g16/l1.exe PID=      5980.
  
 Copyright (c) 1988-2017, Gaussian, Inc.  All Rights Reserved.
  
 This is part of the Gaussian(R) 16 program.  It is based on
 the Gaussian(R) 09 system (copyright 2009, Gaussian, Inc.),
 the Gaussian(R) 03 system (copyright 2003, Gaussian, Inc.),
 the Gaussian(R) 98 system (copyright 1998, Gaussian, Inc.),
 the Gaussian(R) 94 system (copyright 1995, Gaussian, Inc.),
 the Gaussian 92(TM) system (copyright 1992, Gaussian, Inc.),
 the Gaussian 90(TM) system (copyright 1990, Gaussian, Inc.),
 the Gaussian 88(TM) system (copyright 1988, Gaussian, Inc.),
 the Gaussian 86(TM) system (copyright 1986, Carnegie Mellon
 University), and the Gaussian 82(TM) system (copyright 1983,
 Carnegie Mellon University). Gaussian is a federally registered
 trademark of Gaussian, Inc.
  
 This software contains proprietary and confidential information,
 including trade secrets, belonging to Gaussian, Inc.
  
 This software is provided under written license and may be
 used, copied, transmitted, or stored only in accord with that
 written license.
  
 The following legend is applicable only to US Government
 contracts under FAR:
  
                    RESTRICTED RIGHTS LEGEND
  
 Use, reproduction and disclosure by the US Government is
 subject to restrictions as set forth in subparagraphs (a)
 and (c) of the Commercial Computer Software - Restricted
 Rights clause in FAR 52.227-19.
  
 Gaussian, Inc.
 340 Quinnipiac St., Bldg. 40, Wallingford CT 06492
  
  
 ---------------------------------------------------------------
 Warning -- This program may not be used in any manner that
 competes with the business of Gaussian, Inc. or will provide
 assistance to any competitor of Gaussian, Inc.  The licensee
 of this program is prohibited from giving any competitor of
 Gaussian, Inc. access to this program.  By using this program,
 the user acknowledges that Gaussian, Inc. is engaged in the
 business of creating and licensing software in the field of
 computational chemistry and represents and warrants to the
 licensee that it is not a competitor of Gaussian, Inc. and that
 it will not use this program in any manner prohibited above.
 ---------------------------------------------------------------
  

 Cite this work as:
 Gaussian 16, Revision B.01,
 M. J. Frisch, G. W. Trucks, H. B. Schlegel, G. E. Scuseria, 
 M. A. Robb, J. R. Cheeseman, G. Scalmani, V. Barone, 
 G. A. Petersson, H. Nakatsuji, X. Li, M. Caricato, A. V. Marenich, 
 J. Bloino, B. G. Janesko, R. Gomperts, B. Mennucci, H. P. Hratchian, 
 J. V. Ortiz, A. F. Izmaylov, J. L. Sonnenberg, D. Williams-Young, 
 F. Ding, F. Lipparini, F. Egidi, J. Goings, B. Peng, A. Petrone, 
 T. Henderson, D. Ranasinghe, V. G. Zakrzewski, J. Gao, N. Rega, 
 G. Zheng, W. Liang, M. Hada, M. Ehara, K. Toyota, R. Fukuda, 
 J. Hasegawa, M. Ishida, T. Nakajima, Y. Honda, O. Kitao, H. Nakai, 
 T. Vreven, K. Throssell, J. A. Montgomery, Jr., J. E. Peralta, 
 F. Ogliaro, M. J. Bearpark, J. J. Heyd, E. N. Brothers, K. N. Kudin, 
 V. N. Staroverov, T. A. Keith, R. Kobayashi, J. Normand, 
 K. Raghavachari, A. P. Rendell, J. C. Burant, S. S. Iyengar, 
 J. Tomasi, M. Cossi, J. M. Millam, M. Klene, C. Adamo, R. Cammi, 
 J. W. Ochterski, R. L. Martin, K. Morokuma, O. Farkas, 
 J. B. Foresman, and D. J. Fox, Gaussian, Inc., Wallingford CT, 2016.
 
 ******************************************
 Gaussian 16:  ES64L-G16RevB.01 20-Dec-2017
                 6-Jan-2025 
 ******************************************
 %mem=2GB
 %nproc=2
 Will use up to    2 processors via shared memory.
 ----------------------------------------------------------------
 # m062x 6-311++G(d,p) opt=z-matrix scrf=(solvent=dichloroethane)
 ----------------------------------------------------------------
 1/10=7,18=40,26=3,38=1/1,3;
 2/12=2,17=6,18=5,29=3,40=1/2;
 3/5=4,6=6,7=1111,11=2,25=1,30=1,70=2201,71=1,72=10,74=-55/1,2,3;
 4//1;
 5/5=2,38=5,53=10/2;
 6/7=2,8=2,9=2,10=2,28=1/1;
 7/29=1/1,2,3,16;
 1/10=7,18=40,26=3/3(2);
 2/29=3/2;
 99//99;
 2/29=3/2;
 3/5=4,6=6,7=1111,11=2,25=1,30=1,70=2205,71=1,72=10,74=-55/1,2,3;
 4/5=5,16=3,69=1/1;
 5/5=2,38=5,53=10/2;
 7//1,2,3,16;
 1/18=40,26=3/3(-5);
 2/29=3/2;
 6/7=2,8=2,9=2,10=2,19=2,28=1/1;
 99/9=1/99;
 ----
 test
 ----
 Symbolic Z-matrix:
 Charge =  0 Multiplicity = 1
 C1
 C2                   1    d1
 C3                   2    d2       1     120. 
 C4                   3    d3       2     120.     1     0.       0
 C5                   4    d4       3     120.     2     0.       0
 C6                   5    d5       4     120.     3     0.       0
 F7                   1    d6       2     120.     3     180.     0
 H8                   2    d7       3     120.     4     180.     0
 H9                   3    d8       4     120.     5     180.     0
 H10                  4    d9       5     120.     6     180.     0
 H11                  5    d10      6     120.     1     180.     0
 H12                  6    d11      1     120.     2     180.     0
 O13                  7    d12      1     179.9    3     180.     0
 C14                  13   d13      1     179.9    2     180.     0
 H15                  14   d14      1     120.     2     90.      0
 H16                  14   d15      1     120.     2    -90.      0
 H17                  7    d16      1     100.     2     90.      0
 F18                  17   d17      7     160.     1     0.       0
       Variables:
  d1                    1.3                      
  d2                    1.3                      
  d3                    1.3                      
  d4                    1.3                      
  d5                    1.3                      
  d6                    1.4                      
  d7                    1.                       
  d8                    1.                       
  d9                    1.                       
  d10                   1.                       
  d11                   1.                       
  d12                   2.8                      
  d13                   1.2                      
  d14                   1.                       
  d15                   1.                       
  d16                   2.3                      
  d17                   0.9                      
 

 GradGradGradGradGradGradGradGradGradGradGradGradGradGradGradGradGradGrad
 Berny optimization.
 Initialization pass.
                       ----------------------------
                       !    Initial Parameters    !
                       ! (Angstroms and Degrees)  !
 ----------------------                            ----------------------
 !      Name          Value   Derivative information (Atomic Units)     !
 ------------------------------------------------------------------------
 !       d1          1.3      estimate D2E/DX2                          !
 !       d2          1.3      estimate D2E/DX2                          !
 !       d3          1.3      estimate D2E/DX2                          !
 !       d4          1.3      estimate D2E/DX2                          !
 !       d5          1.3      estimate D2E/DX2                          !
 !       d6          1.4      estimate D2E/DX2                          !
 !       d7          1.0      estimate D2E/DX2                          !
 !       d8          1.0      estimate D2E/DX2                          !
 !       d9          1.0      estimate D2E/DX2                          !
 !       d10         1.0      estimate D2E/DX2                          !
 !       d11         1.0      estimate D2E/DX2                          !
 !       d12         2.8      estimate D2E/DX2                          !
 !       d13         1.2      estimate D2E/DX2                          !
 !       d14         1.0      estimate D2E/DX2                          !
 !       d15         1.0      estimate D2E/DX2                          !
 !       d16         2.3      estimate D2E/DX2                          !
 !       d17         0.9      estimate D2E/DX2                          !
 ------------------------------------------------------------------------
 Trust Radius=3.00D-01 FncErr=1.00D-07 GrdErr=1.00D-06 EigMax=2.50D+02 EigMin=1.00D-04
 Number of steps in this run=     27 maximum allowed number of steps=    100.
 GradGradGradGradGradGradGradGradGradGradGradGradGradGradGradGradGradGrad

 ---------------------------------------------------------------------------------------------------
                            Z-MATRIX (ANGSTROMS AND DEGREES)
   CD    Cent   Atom    N1       Length/X        N2       Alpha/Y        N3        Beta/Z          J
 ---------------------------------------------------------------------------------------------------
      1      1  C 
      2      2  C        1   1.300000(     1)
      3      3  C        2   1.300000(     2)      1  120.000(    18)
      4      4  C        3   1.300000(     3)      2  120.000(    19)      1    0.000(    34)      0
      5      5  C        4   1.300000(     4)      3  120.000(    20)      2    0.000(    35)      0
      6      6  C        5   1.300000(     5)      4  120.000(    21)      3    0.000(    36)      0
      7      7  F        1   1.400000(     6)      2  120.000(    22)      3  180.000(    37)      0
      8      8  H        2   1.000000(     7)      3  120.000(    23)      4  180.000(    38)      0
      9      9  H        3   1.000000(     8)      4  120.000(    24)      5  180.000(    39)      0
     10     10  H        4   1.000000(     9)      5  120.000(    25)      6  180.000(    40)      0
     11     11  H        5   1.000000(    10)      6  120.000(    26)      1  180.000(    41)      0
     12     12  H        6   1.000000(    11)      1  120.000(    27)      2  180.000(    42)      0
     13     13  O        7   2.800000(    12)      1  179.900(    28)      3  180.000(    43)      0
     14     14  C       13   1.200000(    13)      1  179.900(    29)      2  180.000(    44)      0
     15     15  H       14   1.000000(    14)      1  120.000(    30)      2   90.000(    45)      0
     16     16  H       14   1.000000(    15)      1  120.000(    31)      2  -90.000(    46)      0
     17     17  H        7   2.300000(    16)      1  100.000(    32)      2   90.000(    47)      0
     18     18  F       17   0.900000(    17)      7  160.000(    33)      1    0.000(    48)      0
 ---------------------------------------------------------------------------------------------------
                         Z-Matrix orientation:                         
 ---------------------------------------------------------------------
 Center     Atomic      Atomic             Coordinates (Angstroms)
 Number     Number       Type             X           Y           Z
 ---------------------------------------------------------------------
      1          6           0        0.000000    0.000000    0.000000
      2          6           0        0.000000    0.000000    1.300000
      3          6           0        1.125833    0.000000    1.950000
      4          6           0        2.251666    0.000000    1.300000
      5          6           0        2.251666    0.000000   -0.000000
      6          6           0        1.125833    0.000000   -0.650000
      7          9           0       -1.212436   -0.000000   -0.700000
      8          1           0       -0.866025   -0.000000    1.800000
      9          1           0        1.125833   -0.000000    2.950000
     10          1           0        3.117691   -0.000000    1.800000
     11          1           0        3.117691   -0.000000   -0.500000
     12          1           0        1.125833   -0.000000   -1.650000
     13          8           0       -3.634860   -0.000000   -2.104230
     14          6           0       -4.672340   -0.000000   -2.707251
     15          1           0       -5.104965    0.866025   -2.957922
     16          1           0       -5.104965   -0.866025   -2.957922
     17          1           0       -1.558318    2.265058   -0.899695
     18          9           0       -1.422973    3.151385   -0.821554
 ---------------------------------------------------------------------
                    Distance matrix (angstroms):
                    1          2          3          4          5
     1  C    0.000000
     2  C    1.300000   0.000000
     3  C    2.251666   1.300000   0.000000
     4  C    2.600000   2.251666   1.300000   0.000000
     5  C    2.251666   2.600000   2.251666   1.300000   0.000000
     6  C    1.300000   2.251666   2.600000   2.251666   1.300000
     7  F    1.400000   2.338803   3.534119   4.000000   3.534119
     8  H    1.997498   1.000000   1.997498   3.157531   3.600000
     9  H    3.157531   1.997498   1.000000   1.997498   3.157531
    10  H    3.600000   3.157531   1.997498   1.000000   1.997498
    11  H    3.157531   3.600000   3.157531   1.997498   1.000000
    12  H    1.997498   3.157531   3.600000   3.157531   1.997498
    13  O    4.199999   4.980059   6.253077   6.799997   6.251317
    14  C    5.399997   6.155390   7.436988   7.999995   7.434452
    15  H    5.963218   6.703772   7.978755   8.543999   7.976172
    16  H    5.963218   6.703772   7.978755   8.543999   7.976172
    17  H    2.892800   3.521009   4.522822   4.948245   4.522822
    18  F    3.554016   4.056731   4.910107   5.285375   4.910107
                    6          7          8          9         10
     6  C    0.000000
     7  F    2.338803   0.000000
     8  H    3.157531   2.523886   0.000000
     9  H    3.600000   4.334743   2.300000   0.000000
    10  H    3.157531   5.000000   3.983717   2.300000   0.000000
    11  H    1.997498   4.334743   4.600000   3.983717   2.300000
    12  H    1.000000   2.523886   3.983717   4.600000   3.983717
    13  O    4.977849   2.800000   4.786382   6.943301   7.799997
    14  C    6.152324   3.999999   5.899436   8.100821   8.999995
    15  H    6.700697   4.582575   6.430896   8.629970   9.539387
    16  H    6.700697   4.582575   6.430896   8.629970   9.539387
    17  H    3.521009   2.300000   3.591394   5.211076   5.855246
    18  F    4.056731   3.160748   4.136902   5.536448   6.117303
                   11         12         13         14         15
    11  H    0.000000
    12  H    2.300000   0.000000
    13  O    6.940497   4.782313   0.000000
    14  C    8.096700   5.893776   1.200000   0.000000
    15  H    8.625744   6.425224   1.907878   1.000000   0.000000
    16  H    8.625744   6.425224   1.907878   1.000000   1.732051
    17  H    5.211076   3.591394   3.300517   4.253807   4.332700
    18  F    5.536448   4.136902   4.058193   4.903618   4.831563
                   16         17         18
    16  H    0.000000
    17  H    5.159329   0.000000
    18  F    5.853266   0.900000   0.000000
 Stoichiometry    C7H8F2O
 Framework group  C1[X(C7H8F2O)]
 Deg. of freedom    48
 Full point group                 C1      NOp   1
 Largest Abelian subgroup         C1      NOp   1
 Largest concise Abelian subgroup C1      NOp   1
                         Standard orientation:                         
 ---------------------------------------------------------------------
 Center     Atomic      Atomic             Coordinates (Angstroms)
 Number     Number       Type             X           Y           Z
 ---------------------------------------------------------------------
      1          6           0       -0.702485   -0.355097   -0.001481
      2          6           0       -1.352040   -0.307568   -1.126567
      3          6           0       -2.648906   -0.217355   -1.125080
      4          6           0       -3.296216   -0.174671    0.001493
      5          6           0       -2.646661   -0.222201    1.126579
      6          6           0       -1.349796   -0.312414    1.125093
      7          9           0        0.694139   -0.452250   -0.003082
      8          1           0       -0.854109   -0.340401   -1.993162
      9          1           0       -3.148563   -0.180794   -1.990531
     10          1           0       -4.293805   -0.105277    0.002637
     11          1           0       -3.144592   -0.189367    1.993174
     12          1           0       -0.850138   -0.348975    1.990544
     13          8           0        3.487387   -0.646565   -0.001398
     14          6           0        4.684492   -0.729845    0.000721
     15          1           0        5.243386    0.099392    0.002724
     16          1           0        5.123187   -1.628480   -0.000875
     17          1           0        1.249754    1.779627    0.001168
     18          9           0        1.155356    2.674661    0.003188
 ---------------------------------------------------------------------
 Rotational constants (GHZ):           2.0958449           0.4987400           0.4591112
 Standard basis: 6-311++G(d,p) (5D, 7F)
 There are   286 symmetry adapted cartesian basis functions of A   symmetry.
 There are   276 symmetry adapted basis functions of A   symmetry.
   276 basis functions,   432 primitive gaussians,   286 cartesian basis functions
    38 alpha electrons       38 beta electrons
       nuclear repulsion energy       485.5299357125 Hartrees.
 NAtoms=   18 NActive=   18 NUniq=   18 SFac= 1.00D+00 NAtFMM=   60 NAOKFM=F Big=F
 Integral buffers will be    131072 words long.
 Raffenetti 2 integral format.
 Two-electron integral symmetry is turned on.
 ------------------------------------------------------------------------------
 Polarizable Continuum Model (PCM)
 =================================
 Model                : PCM.
 Atomic radii         : UFF (Universal Force Field).
 Polarization charges : Total charges.
 Charge compensation  : None.
 Solution method      : On-the-fly selection.
 Cavity type          : Scaled VdW (van der Waals Surface) (Alpha=1.100).
 Cavity algorithm     : GePol (No added spheres)
                        Default sphere list used, NSphG=   18.
                        Lebedev-Laikov grids with approx.  5.0 points / Ang**2.
                        Smoothing algorithm: York/Karplus (Gamma=1.0000).
                        Polarization charges: spherical gaussians, with
                                              point-specific exponents (IZeta= 3).
                        Self-potential: point-specific (ISelfS= 7).
                        Self-field    : sphere-specific E.n sum rule (ISelfD= 2).
 1st derivatives      : Analytical E(r).r(x)/FMM algorithm (CHGder, D1EAlg=3).
                        Cavity 1st derivative terms included.
 Solvent              : DiChloroEthane, Eps=  10.125000 Eps(inf)=   2.087447
 ------------------------------------------------------------------------------
 Spheres list:
 ISph  on   Nord     Re0    Alpha      Xe            Ye            Ze
    1   C      1    1.9255  1.100     -0.702485     -0.355097     -0.001481
    2   C      2    1.9255  1.100     -1.352040     -0.307568     -1.126567
    3   C      3    1.9255  1.100     -2.648906     -0.217355     -1.125080
    4   C      4    1.9255  1.100     -3.296216     -0.174671      0.001493
    5   C      5    1.9255  1.100     -2.646661     -0.222201      1.126579
    6   C      6    1.9255  1.100     -1.349796     -0.312414      1.125093
    7   F      7    1.6820  1.100      0.694139     -0.452250     -0.003082
    8   H      8    1.4430  1.100     -0.854109     -0.340401     -1.993162
    9   H      9    1.4430  1.100     -3.148563     -0.180794     -1.990531
   10   H     10    1.4430  1.100     -4.293805     -0.105277      0.002637
   11   H     11    1.4430  1.100     -3.144592     -0.189367      1.993174
   12   H     12    1.4430  1.100     -0.850138     -0.348975      1.990544
   13   O     13    1.7500  1.100      3.487387     -0.646565     -0.001398
   14   C     14    1.9255  1.100      4.684492     -0.729845      0.000721
   15   H     15    1.4430  1.100      5.243386      0.099392      0.002724
   16   H     16    1.4430  1.100      5.123187     -1.628480     -0.000875
   17   H     17    1.4430  1.100      1.249754      1.779627      0.001168
   18   F     18    1.6820  1.100      1.155356      2.674661      0.003188
 ------------------------------------------------------------------------------
 One-electron integrals computed using PRISM.
 NBasis=   276 RedAO= T EigKep=  4.19D-06  NBF=   276
 NBsUse=   275 1.00D-06 EigRej=  6.02D-07 NBFU=   275
 ExpMin= 3.60D-02 ExpMax= 1.14D+04 ExpMxC= 1.72D+03 IAcc=3 IRadAn=         5 AccDes= 0.00D+00
 Harris functional with IExCor= 1009 and IRadAn=       5 diagonalized for initial guess.
 HarFok:  IExCor= 1009 AccDes= 0.00D+00 IRadAn=         5 IDoV= 1 UseB2=F ITyADJ=14
 ICtDFT=  3500011 ScaDFX=  1.000000  1.000000  1.000000  1.000000
 FoFCou: FMM=F IPFlag=           0 FMFlag=      100000 FMFlg1=           0
         NFxFlg=           0 DoJE=T BraDBF=F KetDBF=T FulRan=T
         wScrn=  0.000000 ICntrl=       500 IOpCl=  0 I1Cent=   200000004 NGrid=           0
         NMat0=    1 NMatS0=      1 NMatT0=    0 NMatD0=    1 NMtDS0=    0 NMtDT0=    0
 Petite list used in FoFCou.
 Requested convergence on RMS density matrix=1.00D-08 within 128 cycles.
 Requested convergence on MAX density matrix=1.00D-06.
 Requested convergence on             energy=1.00D-06.
 No special actions if energy rises.
 Inv3:  Mode=1 IEnd=    10090668.
 Iteration    1 A*A^-1 deviation from unit magnitude is 6.22D-15 for   1817.
 Iteration    1 A*A^-1 deviation from orthogonality  is 2.61D-15 for   1822   1742.
 Iteration    1 A^-1*A deviation from unit magnitude is 6.22D-15 for   1817.
 Iteration    1 A^-1*A deviation from orthogonality  is 2.23D-15 for   1826   1766.
 Error on total polarization charges =  0.01028
 SCF Done:  E(RM062X) =  -546.290050961     A.U. after   13 cycles
            NFock= 13  Conv=0.84D-08     -V/T= 1.9985

 **********************************************************************

            Population analysis using the SCF Density.

 **********************************************************************

 Orbital symmetries:
       Occupied  (A) (A) (A) (A) (A) (A) (A) (A) (A) (A) (A) (A)
                 (A) (A) (A) (A) (A) (A) (A) (A) (A) (A) (A) (A)
                 (A) (A) (A) (A) (A) (A) (A) (A) (A) (A) (A) (A)
                 (A) (A)
       Virtual   (A) (A) (A) (A) (A) (A) (A) (A) (A) (A) (A) (A)
                 (A) (A) (A) (A) (A) (A) (A) (A) (A) (A) (A) (A)
                 (A) (A) (A) (A) (A) (A) (A) (A) (A) (A) (A) (A)
                 (A) (A) (A) (A) (A) (A) (A) (A) (A) (A) (A) (A)
                 (A) (A) (A) (A) (A) (A) (A) (A) (A) (A) (A) (A)
                 (A) (A) (A) (A) (A) (A) (A) (A) (A) (A) (A) (A)
                 (A) (A) (A) (A) (A) (A) (A) (A) (A) (A) (A) (A)
                 (A) (A) (A) (A) (A) (A) (A) (A) (A) (A) (A) (A)
                 (A) (A) (A) (A) (A) (A) (A) (A) (A) (A) (A) (A)
                 (A) (A) (A) (A) (A) (A) (A) (A) (A) (A) (A) (A)
                 (A) (A) (A) (A) (A) (A) (A) (A) (A) (A) (A) (A)
                 (A) (A) (A) (A) (A) (A) (A) (A) (A) (A) (A) (A)
                 (A) (A) (A) (A) (A) (A) (A) (A) (A) (A) (A) (A)
                 (A) (A) (A) (A) (A) (A) (A) (A) (A) (A) (A) (A)
                 (A) (A) (A) (A) (A) (A) (A) (A) (A) (A) (A) (A)
                 (A) (A) (A) (A) (A) (A) (A) (A) (A) (A) (A) (A)
                 (A) (A) (A) (A) (A) (A) (A) (A) (A) (A) (A) (A)
                 (A) (A) (A) (A) (A) (A) (A) (A) (A) (A) (A) (A)
                 (A) (A) (A) (A) (A) (A) (A) (A) (A) (A) (A) (A)
                 (A) (A) (A) (A) (A) (A) (A) (A) (A)
 The electronic state is 1-A.
 Alpha  occ. eigenvalues --  -25.25240 -25.23169 -19.63869 -10.61564 -10.61271
 Alpha  occ. eigenvalues --  -10.52386 -10.52383 -10.52142 -10.52130 -10.51411
 Alpha  occ. eigenvalues --   -1.35759  -1.34975  -1.19067  -1.03138  -0.89318
 Alpha  occ. eigenvalues --   -0.88413  -0.74965  -0.73762  -0.72315  -0.66374
 Alpha  occ. eigenvalues --   -0.64835  -0.60470  -0.59040  -0.58678  -0.56699
 Alpha  occ. eigenvalues --   -0.53932  -0.53458  -0.52519  -0.51751  -0.51737
 Alpha  occ. eigenvalues --   -0.49953  -0.47759  -0.47465  -0.44448  -0.42036
 Alpha  occ. eigenvalues --   -0.35018  -0.33871  -0.32831
 Alpha virt. eigenvalues --   -0.00486  -0.00182   0.00887   0.01535   0.02072
 Alpha virt. eigenvalues --    0.02542   0.02574   0.03469   0.03633   0.04214
 Alpha virt. eigenvalues --    0.05065   0.06657   0.07348   0.07877   0.07934
 Alpha virt. eigenvalues --    0.09098   0.11034   0.11212   0.11847   0.11857
 Alpha virt. eigenvalues --    0.12985   0.13257   0.13609   0.14086   0.14256
 Alpha virt. eigenvalues --    0.14419   0.14838   0.15299   0.15768   0.16375
 Alpha virt. eigenvalues --    0.17358   0.17894   0.18594   0.20085   0.20428
 Alpha virt. eigenvalues --    0.21081   0.21890   0.21964   0.22721   0.23235
 Alpha virt. eigenvalues --    0.25483   0.26318   0.26693   0.28922   0.29615
 Alpha virt. eigenvalues --    0.29719   0.31461   0.32536   0.33438   0.33524
 Alpha virt. eigenvalues --    0.34752   0.35633   0.35851   0.36810   0.36979
 Alpha virt. eigenvalues --    0.39196   0.40878   0.42156   0.42522   0.43737
 Alpha virt. eigenvalues --    0.44105   0.45416   0.45559   0.51006   0.51726
 Alpha virt. eigenvalues --    0.54397   0.54637   0.56772   0.57161   0.58150
 Alpha virt. eigenvalues --    0.58723   0.59297   0.60803   0.61529   0.62624
 Alpha virt. eigenvalues --    0.64218   0.65157   0.65570   0.65589   0.67476
 Alpha virt. eigenvalues --    0.69560   0.70445   0.74408   0.74790   0.75929
 Alpha virt. eigenvalues --    0.76208   0.81536   0.81610   0.82499   0.85330
 Alpha virt. eigenvalues --    0.85573   0.89252   0.90025   0.93868   0.96631
 Alpha virt. eigenvalues --    0.99886   1.01066   1.01945   1.02173   1.04575
 Alpha virt. eigenvalues --    1.05874   1.07939   1.08264   1.10463   1.11590
 Alpha virt. eigenvalues --    1.16132   1.16393   1.19060   1.21818   1.23952
 Alpha virt. eigenvalues --    1.25094   1.27080   1.32512   1.32978   1.35259
 Alpha virt. eigenvalues --    1.35831   1.36936   1.43137   1.46877   1.49934
 Alpha virt. eigenvalues --    1.52104   1.52359   1.52918   1.53496   1.59299
 Alpha virt. eigenvalues --    1.62587   1.62901   1.63794   1.64852   1.67561
 Alpha virt. eigenvalues --    1.68222   1.70028   1.72112   1.73001   1.76571
 Alpha virt. eigenvalues --    1.76702   1.80527   1.81933   1.84691   1.85634
 Alpha virt. eigenvalues --    1.85760   1.90322   1.92681   1.94256   1.97345
 Alpha virt. eigenvalues --    1.98870   2.04363   2.04374   2.05677   2.05724
 Alpha virt. eigenvalues --    2.06379   2.11975   2.15371   2.17226   2.17430
 Alpha virt. eigenvalues --    2.18845   2.19983   2.21861   2.29220   2.36221
 Alpha virt. eigenvalues --    2.40827   2.46421   2.48024   2.50559   2.51015
 Alpha virt. eigenvalues --    2.53904   2.57894   2.63668   2.67035   2.70921
 Alpha virt. eigenvalues --    2.71744   2.75262   2.76764   2.76797   2.77829
 Alpha virt. eigenvalues --    2.79300   2.81157   2.86466   2.86608   2.87484
 Alpha virt. eigenvalues --    2.88313   2.90390   2.96442   2.98172   2.98432
 Alpha virt. eigenvalues --    3.03575   3.07831   3.11909   3.24221   3.27276
 Alpha virt. eigenvalues --    3.34347   3.39734   3.41953   3.55302   3.59729
 Alpha virt. eigenvalues --    3.61665   3.64427   3.75191   3.75590   3.86730
 Alpha virt. eigenvalues --    3.88642   3.88694   3.88778   3.98441   4.00488
 Alpha virt. eigenvalues --    4.04777   4.08443   4.13985   4.14915   4.17303
 Alpha virt. eigenvalues --    4.18032   4.19366   4.26193   4.26480   4.36459
 Alpha virt. eigenvalues --    4.91755   4.95206   4.95654   5.11271   5.23612
 Alpha virt. eigenvalues --    5.81079   6.41214   6.44456   6.50467   6.61026
 Alpha virt. eigenvalues --    6.84577   6.88422  23.72908  24.17305  24.26880
 Alpha virt. eigenvalues --   24.31699  24.54345  24.57462  24.72892  50.06698
 Alpha virt. eigenvalues --   66.91005  66.96371
          Condensed to atoms (all electrons):
               1          2          3          4          5          6
     1  C   11.325727  -0.945906  -1.507362  -0.304905  -1.506029  -0.941323
     2  C   -0.945906  12.769319   1.035680  -0.676770  -0.123285  -6.331415
     3  C   -1.507362   1.035680   6.196847   0.575235  -0.328932  -0.127149
     4  C   -0.304905  -0.676770   0.575235   6.395273   0.574917  -0.671061
     5  C   -1.506029  -0.123285  -0.328932   0.574917   6.196565   1.031331
     6  C   -0.941323  -6.331415  -0.127149  -0.671061   1.031331  12.766694
     7  F    0.486930  -0.260532  -0.040981   0.031255  -0.041150  -0.260804
     8  H   -0.174433   0.650943  -0.032471  -0.003856   0.019439  -0.119327
     9  H    0.015342  -0.082369   0.441680  -0.096800  -0.012291   0.075749
    10  H    0.031406  -0.020634  -0.063741   0.493743  -0.063806  -0.020458
    11  H    0.015369   0.075836  -0.012251  -0.096864   0.441777  -0.082561
    12  H   -0.174100  -0.118784   0.019375  -0.003852  -0.032681   0.650344
    13  O    0.031111  -0.009723   0.000118  -0.000915   0.000141  -0.009642
    14  C   -0.001415  -0.001218   0.000014   0.000351  -0.000004  -0.001410
    15  H    0.001590  -0.000390  -0.000170  -0.000005  -0.000170  -0.000378
    16  H   -0.001325   0.000426   0.000134  -0.000013   0.000132   0.000416
    17  H   -0.021296   0.004272   0.006593   0.000304   0.006651   0.004542
    18  F    0.129360  -0.032580  -0.023378   0.004250  -0.023388  -0.032866
               7          8          9         10         11         12
     1  C    0.486930  -0.174433   0.015342   0.031406   0.015369  -0.174100
     2  C   -0.260532   0.650943  -0.082369  -0.020634   0.075836  -0.118784
     3  C   -0.040981  -0.032471   0.441680  -0.063741  -0.012251   0.019375
     4  C    0.031255  -0.003856  -0.096800   0.493743  -0.096864  -0.003852
     5  C   -0.041150   0.019439  -0.012291  -0.063806   0.441777  -0.032681
     6  C   -0.260804  -0.119327   0.075749  -0.020458  -0.082561   0.650344
     7  F    9.320612  -0.029482  -0.000810   0.001211  -0.000806  -0.029441
     8  H   -0.029482   0.492483  -0.012758   0.000417   0.002737  -0.000289
     9  H   -0.000810  -0.012758   0.475928  -0.012299   0.000143   0.002735
    10  H    0.001211   0.000417  -0.012299   0.481910  -0.012305   0.000422
    11  H   -0.000806   0.002737   0.000143  -0.012305   0.475940  -0.012769
    12  H   -0.029441  -0.000289   0.002735   0.000422  -0.012769   0.492476
    13  O    0.007643   0.000662   0.000079  -0.000009   0.000079   0.000661
    14  C    0.004162  -0.000271  -0.000009   0.000006  -0.000009  -0.000269
    15  H   -0.001046  -0.000081   0.000000   0.000001   0.000000  -0.000081
    16  H   -0.000419   0.000053   0.000000  -0.000002   0.000000   0.000054
    17  H    0.023156  -0.001192   0.000127  -0.000116   0.000127  -0.001192
    18  F   -0.012763   0.000863  -0.000671   0.000162  -0.000671   0.000866
              13         14         15         16         17         18
     1  C    0.031111  -0.001415   0.001590  -0.001325  -0.021296   0.129360
     2  C   -0.009723  -0.001218  -0.000390   0.000426   0.004272  -0.032580
     3  C    0.000118   0.000014  -0.000170   0.000134   0.006593  -0.023378
     4  C   -0.000915   0.000351  -0.000005  -0.000013   0.000304   0.004250
     5  C    0.000141  -0.000004  -0.000170   0.000132   0.006651  -0.023388
     6  C   -0.009642  -0.001410  -0.000378   0.000416   0.004542  -0.032866
     7  F    0.007643   0.004162  -0.001046  -0.000419   0.023156  -0.012763
     8  H    0.000662  -0.000271  -0.000081   0.000053  -0.001192   0.000863
     9  H    0.000079  -0.000009   0.000000   0.000000   0.000127  -0.000671
    10  H   -0.000009   0.000006   0.000001  -0.000002  -0.000116   0.000162
    11  H    0.000079  -0.000009   0.000000   0.000000   0.000127  -0.000671
    12  H    0.000661  -0.000269  -0.000081   0.000054  -0.001192   0.000866
    13  O    8.196371   0.290424  -0.089871  -0.088137   0.004055  -0.002109
    14  C    0.290424   4.795287   0.413664   0.414369   0.001591  -0.000562
    15  H   -0.089871   0.413664   0.675019  -0.126636  -0.000860   0.000433
    16  H   -0.088137   0.414369  -0.126636   0.676989   0.000233  -0.000142
    17  H    0.004055   0.001591  -0.000860   0.000233   0.374002   0.323502
    18  F   -0.002109  -0.000562   0.000433  -0.000142   0.323502   8.944251
 Mulliken charges:
               1
     1  C   -0.458743
     2  C    0.067129
     3  C   -0.139241
     4  C   -0.220287
     5  C   -0.139218
     6  C    0.069321
     7  F   -0.196736
     8  H    0.206563
     9  H    0.206223
    10  H    0.184091
    11  H    0.206225
    12  H    0.206526
    13  O   -0.330939
    14  C    0.085297
    15  H    0.128981
    16  H    0.123866
    17  H    0.275499
    18  F   -0.274557
 Sum of Mulliken charges =  -0.00000
 Mulliken charges with hydrogens summed into heavy atoms:
               1
     1  C   -0.458743
     2  C    0.273692
     3  C    0.066982
     4  C   -0.036196
     5  C    0.067008
     6  C    0.275847
     7  F   -0.196736
    13  O   -0.330939
    14  C    0.338144
    18  F    0.000943
 Electronic spatial extent (au):  <R**2>=           2400.7752
 Charge=              0.0000 electrons
 Dipole moment (field-independent basis, Debye):
    X=              0.6054    Y=             -2.2622    Z=              0.0028  Tot=              2.3418
 Quadrupole moment (field-independent basis, Debye-Ang):
   XX=            -25.2353   YY=            -67.6208   ZZ=            -50.8872
   XY=             -4.6241   XZ=              0.0163   YZ=             -0.0352
 Traceless Quadrupole moment (field-independent basis, Debye-Ang):
   XX=             22.6791   YY=            -19.7064   ZZ=             -2.9728
   XY=             -4.6241   XZ=              0.0163   YZ=             -0.0352
 Octapole moment (field-independent basis, Debye-Ang**2):
  XXX=            155.9209  YYY=            -14.4928  ZZZ=             -0.0049  XYY=             12.4128
  XXY=            -17.7176  XXZ=              0.0610  XZZ=              1.0626  YZZ=              2.3601
  YYZ=             -0.0268  XYZ=              0.0093
 Hexadecapole moment (field-independent basis, Debye-Ang**3):
 XXXX=          -1410.1671 YYYY=           -434.2406 ZZZZ=           -240.2881 XXXY=           -115.7933
 XXXZ=              0.2326 YYYX=            -37.9840 YYYZ=             -0.0194 ZZZX=             -0.0004
 ZZZY=             -0.0423 XXYY=           -458.3370 XXZZ=           -413.7571 YYZZ=           -109.1440
 XXYZ=             -0.1182 YYXZ=             -0.0495 ZZXY=              3.1779
 N-N= 4.855299357125D+02 E-N=-2.258174874037D+03  KE= 5.471295379701D+02
 D1PCM: PCM CHGder 1st derivatives, ID1Alg=3 FixD1E=F DoIter=F DoCFld=F I1PDM=0.
 Calling FoFJK, ICntrl=      2127 FMM=F ISym2X=0 I1Cent= 0 IOpClX= 0 NMat=1 NMatS=1 NMatT=0.
 ***** Axes restored to original set *****
 -------------------------------------------------------------------
 Center     Atomic                   Forces (Hartrees/Bohr)
 Number     Number              X              Y              Z
 -------------------------------------------------------------------
      1        6          -0.087931957   -0.000497133   -0.050768914
      2        6          -0.053575658   -0.000265805    0.014981758
      3        6           0.002619340    0.000295065    0.037388304
      4        6           0.039376971   -0.000231979    0.022737778
      5        6           0.033692765    0.000295913   -0.016424549
      6        6          -0.013813004   -0.000264780   -0.053886998
      7        9           0.023189264    0.003656867    0.013389541
      8        1          -0.065555342   -0.000074119    0.035955930
      9        1          -0.001679233    0.000014461    0.073812055
     10        1           0.064294222    0.000003921    0.037120049
     11        1           0.063082329    0.000013889   -0.038361017
     12        1          -0.001640022   -0.000074920   -0.074751293
     13        8           0.015791453    0.000463387    0.009114003
     14        6           0.061066617    0.000163027    0.035587176
     15        1          -0.039179097    0.071462297   -0.022784301
     16        1          -0.039107192   -0.071490997   -0.022742908
     17        1          -0.005231359   -0.031764336   -0.003023849
     18        9           0.004599903    0.028295242    0.002657234
 -------------------------------------------------------------------
 Cartesian Forces:  Max     0.087931957 RMS     0.036317214
 -----------------------------------------------------------------------------------------------
                       Internal Coordinate Forces (Hartree/Bohr or radian)
  Cent   Atom   N1       Length/X         N2         Alpha/Y        N3         Beta/Z          J
 -----------------------------------------------------------------------------------------------
      1  C 
      2  C        1   0.037479(     1)
      3  C        2   0.153748(     2)      1   0.162572(    18)
      4  C        3   0.221992(     3)      2   0.415719(    19)      1  -0.000469(    34)     0
      5  C        4   0.184516(     4)      3   0.451302(    20)      2  -0.000771(    35)     0
      6  C        5   0.078794(     5)      4   0.253073(    21)      3  -0.000706(    36)     0
      7  F        1  -0.024397(     6)      2  -0.000000(    22)      3   0.000150(    37)     0
      8  H        2   0.074751(     7)      3   0.003097(    23)      4  -0.000121(    38)     0
      9  H        3   0.073812(     8)      4   0.003173(    24)      5   0.000024(    39)     0
     10  H        4   0.074240(     9)      5  -0.000000(    25)      6   0.000006(    40)     0
     11  H        5   0.073811(    10)      6  -0.003176(    26)      1   0.000023(    41)     0
     12  H        6   0.074751(    11)      1  -0.003099(    27)      2  -0.000123(    42)     0
     13  O        7   0.001650(    12)      1   0.000008(    28)      3  -0.000006(    43)     0
     14  C       13   0.019883(    13)      1   0.000104(    29)      2  -0.000000(    44)     0
     15  H       14   0.084549(    14)      1   0.006650(    30)      2   0.000118(    45)     0
     16  H       14   0.084533(    15)      1   0.006487(    31)      2  -0.000118(    46)     0
     17  H        7  -0.003290(    16)      1   0.005203(    32)      2   0.000005(    47)     0
     18  F       17   0.028788(    17)      7  -0.000541(    33)      1  -0.000001(    48)     0
 -----------------------------------------------------------------------------------------------
 Internal  Forces:  Max     0.451302125 RMS     0.114146704

 GradGradGradGradGradGradGradGradGradGradGradGradGradGradGradGradGradGrad
 Berny optimization.
 Search for a local minimum.
 Step number   1 out of a maximum of   27
 All quantities printed in internal units (Hartrees-Bohrs-Radians)
 Second derivative matrix not updated -- first step.
 The second derivative matrix:
                          d1        d2        d3        d4        d5
           d1           0.95300
           d2          -0.05489   0.95300
           d3          -0.33597   0.33597   1.34386
           d4          -0.28107   0.05489   0.33597   0.95300
           d5           0.05489  -0.28107  -0.33597  -0.05489   0.95300
           d6           0.00000   0.00000  -0.00000  -0.00000  -0.00000
           d7          -0.00000  -0.00000  -0.00000   0.00000   0.00000
           d8           0.00000   0.00000   0.00000  -0.00000  -0.00000
           d9          -0.00000  -0.00000  -0.00000   0.00000   0.00000
           d10          0.00000  -0.00000  -0.00000   0.00000  -0.00000
           d11         -0.00000  -0.00000   0.00000  -0.00000   0.00000
           d12          0.00000   0.00000  -0.00000  -0.00000  -0.00000
           d13          0.00000   0.00000  -0.00000  -0.00000  -0.00000
           d14          0.00000   0.00000  -0.00000  -0.00000  -0.00000
           d15         -0.00000  -0.00000  -0.00000   0.00000   0.00000
           d16         -0.00000  -0.00000   0.00000   0.00000   0.00000
           d17         -0.00000  -0.00000   0.00000   0.00000   0.00000
                          d6        d7        d8        d9        d10
           d6           0.45621
           d7          -0.00000   0.47688
           d8          -0.00000   0.00000   0.47688
           d9           0.00000  -0.00000   0.00000   0.47688
           d10          0.00000  -0.00000   0.00000  -0.00000   0.47688
           d11          0.00000   0.00000  -0.00000   0.00000  -0.00000
           d12         -0.00000   0.00000  -0.00000   0.00000   0.00000
           d13         -0.00000   0.00000  -0.00000   0.00000   0.00000
           d14          0.00000  -0.00000  -0.00000   0.00000   0.00000
           d15          0.00000   0.00000   0.00000  -0.00000  -0.00000
           d16         -0.00000  -0.00000   0.00000  -0.00000  -0.00000
           d17          0.00000  -0.00000   0.00000  -0.00000  -0.00000
                          d11       d12       d13       d14       d15
           d11          0.47688
           d12          0.00000   0.02330
           d13          0.00000  -0.00000   1.04823
           d14          0.00000   0.00000   0.00000   0.47688
           d15         -0.00000   0.00000  -0.00000   0.00000   0.47688
           d16         -0.00000   0.00000  -0.00000   0.00000  -0.00000
           d17         -0.00000   0.00000   0.00000   0.00000  -0.00000
                          d16       d17
           d16          0.02721
           d17          0.00000   0.70673
 ITU=  0
     Eigenvalues ---    0.02330   0.02721   0.45621   0.47688   0.47688
     Eigenvalues ---    0.47688   0.47688   0.47688   0.47688   0.47688
     Eigenvalues ---    0.67193   0.67193   0.67193   0.70673   1.04823
     Eigenvalues ---    1.12429   2.01579
 RFO step:  Lambda=-1.63405153D-01 EMin= 2.33007068D-02
 Linear search not attempted -- first point.
 Maximum step size (   0.300) exceeded in Quadratic search.
    -- Step size scaled by   0.670
 Variable       Old X    -DE/DX   Delta X   Delta X   Delta X     New X
                                 (Linear)    (Quad)   (Total)
    d1        2.45664   0.03748   0.00000   0.07626   0.07626   2.53290
    d2        2.45664   0.15375   0.00000   0.08715   0.08715   2.54380
    d3        2.45664   0.22199   0.00000   0.09563   0.09563   2.55228
    d4        2.45664   0.18452   0.00000   0.10167   0.10167   2.55831
    d5        2.45664   0.07879   0.00000   0.09922   0.09922   2.55587
    d6        2.64562  -0.02440   0.00000  -0.02636  -0.02636   2.61925
    d7        1.88973   0.07475   0.00000   0.07816   0.07816   1.96789
    d8        1.88973   0.07381   0.00000   0.07718   0.07718   1.96691
    d9        1.88973   0.07424   0.00000   0.07763   0.07763   1.96735
   d10        1.88973   0.07381   0.00000   0.07718   0.07718   1.96691
   d11        1.88973   0.07475   0.00000   0.07816   0.07816   1.96789
   d12        5.29123   0.00165   0.00000   0.00592   0.00592   5.29715
   d13        2.26767   0.01988   0.00000   0.01099   0.01099   2.27866
   d14        1.88973   0.08455   0.00000   0.08841   0.08841   1.97813
   d15        1.88973   0.08453   0.00000   0.08839   0.08839   1.97812
   d16        4.34637  -0.00329   0.00000  -0.01155  -0.01155   4.33482
   d17        1.70075   0.02879   0.00000   0.02215   0.02215   1.72290
         Item               Value     Threshold  Converged?
 Maximum Force            0.221992     0.000450     NO 
 RMS     Force            0.096494     0.000300     NO 
 Maximum Displacement     0.101667     0.001800     NO 
 RMS     Displacement     0.072761     0.001200     NO 
 Predicted change in Energy=-8.013176D-02
 GradGradGradGradGradGradGradGradGradGradGradGradGradGradGradGradGradGrad

 ---------------------------------------------------------------------------------------------------
                            Z-MATRIX (ANGSTROMS AND DEGREES)
   CD    Cent   Atom    N1       Length/X        N2       Alpha/Y        N3        Beta/Z          J
 ---------------------------------------------------------------------------------------------------
      1      1  C 
      2      2  C        1   1.340354(     1)
      3      3  C        2   1.346120(     2)      1  120.000(    18)
      4      4  C        3   1.350606(     3)      2  120.000(    19)      1    0.000(    34)      0
      5      5  C        4   1.353800(     4)      3  120.000(    20)      2    0.000(    35)      0
      6      6  C        5   1.352507(     5)      4  120.000(    21)      3    0.000(    36)      0
      7      7  F        1   1.386050(     6)      2  120.000(    22)      3  180.000(    37)      0
      8      8  H        2   1.041361(     7)      3  120.000(    23)      4  180.000(    38)      0
      9      9  H        3   1.040842(     8)      4  120.000(    24)      5  180.000(    39)      0
     10     10  H        4   1.041079(     9)      5  120.000(    25)      6  180.000(    40)      0
     11     11  H        5   1.040842(    10)      6  120.000(    26)      1  180.000(    41)      0
     12     12  H        6   1.041362(    11)      1  120.000(    27)      2  180.000(    42)      0
     13     13  O        7   2.803131(    12)      1  179.900(    28)      3  180.000(    43)      0
     14     14  C       13   1.205814(    13)      1  179.900(    29)      2  180.000(    44)      0
     15     15  H       14   1.046783(    14)      1  120.000(    30)      2   90.000(    45)      0
     16     16  H       14   1.046774(    15)      1  120.000(    31)      2  -90.000(    46)      0
     17     17  H        7   2.293886(    16)      1  100.000(    32)      2   90.000(    47)      0
     18     18  F       17   0.911721(    17)      7  160.000(    33)      1    0.000(    48)      0
 ---------------------------------------------------------------------------------------------------
                         Z-Matrix orientation:                         
 ---------------------------------------------------------------------
 Center     Atomic      Atomic             Coordinates (Angstroms)
 Number     Number       Type             X           Y           Z
 ---------------------------------------------------------------------
      1          6           0        0.000000    0.000000    0.000000
      2          6           0        0.000000    0.000000    1.340354
      3          6           0        1.165774    0.000000    2.013414
      4          6           0        2.335434    0.000000    1.338111
      5          6           0        2.335434    0.000000   -0.015689
      6          6           0        1.164128    0.000000   -0.691943
      7          9           0       -1.200354   -0.000000   -0.693025
      8          1           0       -0.901845   -0.000000    1.861035
      9          1           0        1.165774   -0.000000    3.054256
     10          1           0        3.237035   -0.000000    1.858651
     11          1           0        3.236829   -0.000000   -0.536110
     12          1           0        1.150921   -0.000000   -1.733221
     13          8           0       -3.625487   -0.000000   -2.098825
     14          6           0       -4.667992   -0.000000   -2.704772
     15          1           0       -5.120854    0.906541   -2.967173
     16          1           0       -5.120850   -0.906533   -2.967171
     17          1           0       -1.545318    2.259036   -0.892189
     18          9           0       -1.408209    3.156907   -0.813030
 ---------------------------------------------------------------------
                    Distance matrix (angstroms):
                    1          2          3          4          5
     1  C    0.000000
     2  C    1.340354   0.000000
     3  C    2.326557   1.346120   0.000000
     4  C    2.691615   2.335435   1.350606   0.000000
     5  C    2.335486   2.700575   2.342085   1.353800   0.000000
     6  C    1.354245   2.342098   2.705357   2.343731   1.352507
     7  F    1.386050   2.361246   3.594910   4.077660   3.600081
     8  H    2.068037   1.041361   2.073227   3.279241   3.741934
     9  H    3.269176   2.072798   1.040842   2.076838   3.285219
    10  H    3.732690   3.278265   2.077034   1.041079   2.079912
    11  H    3.280926   3.741414   3.284713   2.079716   1.040842
    12  H    2.080546   3.281993   3.746664   3.291830   2.086381
    13  O    4.189179   4.997210   6.314008   6.880778   6.314430
    14  C    5.394992   6.176827   7.502939   8.086585   7.501942
    15  H    5.987410   6.752759   8.071540   8.657570   8.070272
    16  H    5.987404   6.752753   8.071535   8.657564   8.070267
    17  H    2.878759   3.532068   4.571192   5.013753   4.575121
    18  F    3.551075   4.072613   4.957846   5.348676   4.961520
                    6          7          8          9         10
     6  C    0.000000
     7  F    2.364483   0.000000
     8  H    3.284196   2.571445   0.000000
     9  H    3.746199   4.431781   2.387222   0.000000
    10  H    3.286710   5.118737   4.138881   2.391567   0.000000
    11  H    2.078550   4.439957   4.782774   4.144876   2.394760
    12  H    1.041362   2.571090   4.139145   4.787500   4.153722
    13  O    4.991967   2.803131   4.806112   7.036365   7.921857
    14  C    6.169692   4.008944   5.918652   8.197513   9.127665
    15  H    6.745331   4.622108   6.475603   8.752207   9.693539
    16  H    6.745326   4.622102   6.475598   8.752201   9.693533
    17  H    3.533333   2.293886   3.619053   5.294119   5.961649
    18  F    4.074021   3.166017   4.168104   5.616703   6.219504
                   11         12         13         14         15
    11  H    0.000000
    12  H    2.405013   0.000000
    13  O    7.038001   4.790380   0.000000
    14  C    8.196907   5.899462   1.205814   0.000000
    15  H    8.751157   6.455975   1.952426   1.046783   0.000000
    16  H    8.751152   6.455970   1.952418   1.046774   1.813074
    17  H    5.300846   3.616667   3.299442   4.259084   4.349628
    18  F    5.623089   4.166768   4.066405   4.916394   4.846463
                   16         17         18
    16  H    0.000000
    17  H    5.206804   0.000000
    18  F    5.910631   0.911721   0.000000
 Stoichiometry    C7H8F2O
 Framework group  C1[X(C7H8F2O)]
 Deg. of freedom    48
 Full point group                 C1      NOp   1
 Largest Abelian subgroup         C1      NOp   1
 Largest concise Abelian subgroup C1      NOp   1
                         Standard orientation:                         
 ---------------------------------------------------------------------
 Center     Atomic      Atomic             Coordinates (Angstroms)
 Number     Number       Type             X           Y           Z
 ---------------------------------------------------------------------
      1          6           0       -0.673621   -0.357978   -0.008113
      2          6           0       -1.341695   -0.305700   -1.168929
      3          6           0       -2.684617   -0.212971   -1.169033
      4          6           0       -3.358832   -0.172610    0.000559
      5          6           0       -2.684056   -0.225413    1.173020
      6          6           0       -1.334762   -0.318582    1.173123
      7          9           0        0.709136   -0.453459   -0.008007
      8          1           0       -0.821854   -0.336820   -2.070722
      9          1           0       -3.203405   -0.172375   -2.070455
     10          1           0       -4.397438   -0.100894    0.000479
     11          1           0       -3.203638   -0.194309    2.074362
     12          1           0       -0.804343   -0.359949    2.068321
     13          8           0        3.505602   -0.646582   -0.002900
     14          6           0        4.708544   -0.729664    0.000705
     15          1           0        5.293139    0.138652    0.006350
     16          1           0        5.168240   -1.670090   -0.003229
     17          1           0        1.262133    1.772741    0.003958
     18          9           0        1.166040    2.679372    0.008690
 ---------------------------------------------------------------------
 Rotational constants (GHZ):           2.0371462           0.4877577           0.4520478
 Standard basis: 6-311++G(d,p) (5D, 7F)
 There are   286 symmetry adapted cartesian basis functions of A   symmetry.
 There are   276 symmetry adapted basis functions of A   symmetry.
   276 basis functions,   432 primitive gaussians,   286 cartesian basis functions
    38 alpha electrons       38 beta electrons
       nuclear repulsion energy       475.8423357162 Hartrees.
 NAtoms=   18 NActive=   18 NUniq=   18 SFac= 1.00D+00 NAtFMM=   60 NAOKFM=F Big=F
 Integral buffers will be    131072 words long.
 Raffenetti 2 integral format.
 Two-electron integral symmetry is turned on.
 ------------------------------------------------------------------------------
 Polarizable Continuum Model (PCM)
 =================================
 Model                : PCM.
 Atomic radii         : UFF (Universal Force Field).
 Polarization charges : Total charges.
 Charge compensation  : None.
 Solution method      : On-the-fly selection.
 Cavity type          : Scaled VdW (van der Waals Surface) (Alpha=1.100).
 Cavity algorithm     : GePol (No added spheres)
                        Default sphere list used, NSphG=   18.
                        Lebedev-Laikov grids with approx.  5.0 points / Ang**2.
                        Smoothing algorithm: York/Karplus (Gamma=1.0000).
                        Polarization charges: spherical gaussians, with
                                              point-specific exponents (IZeta= 3).
                        Self-potential: point-specific (ISelfS= 7).
                        Self-field    : sphere-specific E.n sum rule (ISelfD= 2).
 1st derivatives      : Analytical E(r).r(x)/FMM algorithm (CHGder, D1EAlg=3).
                        Cavity 1st derivative terms included.
 Solvent              : DiChloroEthane, Eps=  10.125000 Eps(inf)=   2.087447
 ------------------------------------------------------------------------------
 Spheres list:
 ISph  on   Nord     Re0    Alpha      Xe            Ye            Ze
    1   C      1    1.9255  1.100     -0.673621     -0.357978     -0.008113
    2   C      2    1.9255  1.100     -1.341695     -0.305700     -1.168929
    3   C      3    1.9255  1.100     -2.684617     -0.212971     -1.169033
    4   C      4    1.9255  1.100     -3.358832     -0.172610      0.000559
    5   C      5    1.9255  1.100     -2.684056     -0.225413      1.173020
    6   C      6    1.9255  1.100     -1.334762     -0.318582      1.173123
    7   F      7    1.6820  1.100      0.709136     -0.453459     -0.008007
    8   H      8    1.4430  1.100     -0.821854     -0.336820     -2.070722
    9   H      9    1.4430  1.100     -3.203405     -0.172375     -2.070455
   10   H     10    1.4430  1.100     -4.397438     -0.100894      0.000479
   11   H     11    1.4430  1.100     -3.203638     -0.194309      2.074362
   12   H     12    1.4430  1.100     -0.804343     -0.359949      2.068321
   13   O     13    1.7500  1.100      3.505602     -0.646582     -0.002900
   14   C     14    1.9255  1.100      4.708544     -0.729664      0.000705
   15   H     15    1.4430  1.100      5.293139      0.138652      0.006350
   16   H     16    1.4430  1.100      5.168240     -1.670090     -0.003229
   17   H     17    1.4430  1.100      1.262133      1.772741      0.003958
   18   F     18    1.6820  1.100      1.166040      2.679372      0.008690
 ------------------------------------------------------------------------------
 One-electron integrals computed using PRISM.
 NBasis=   276 RedAO= T EigKep=  5.76D-06  NBF=   276
 NBsUse=   275 1.00D-06 EigRej=  8.36D-07 NBFU=   275
 Initial guess from the checkpoint file:  "/home/lywu/software/g16/scr/Gau-5980.chk"
 B after Tr=    -0.000000    0.000000   -0.000000
         Rot=    0.999999   -0.001260   -0.000066    0.000012 Ang=  -0.14 deg.
 ExpMin= 3.60D-02 ExpMax= 1.14D+04 ExpMxC= 1.72D+03 IAcc=3 IRadAn=         5 AccDes= 0.00D+00
 Harris functional with IExCor= 1009 and IRadAn=       5 diagonalized for initial guess.
 HarFok:  IExCor= 1009 AccDes= 0.00D+00 IRadAn=         5 IDoV= 1 UseB2=F ITyADJ=14
 ICtDFT=  3500011 ScaDFX=  1.000000  1.000000  1.000000  1.000000
 FoFCou: FMM=F IPFlag=           0 FMFlag=      100000 FMFlg1=           0
         NFxFlg=           0 DoJE=T BraDBF=F KetDBF=T FulRan=T
         wScrn=  0.000000 ICntrl=       500 IOpCl=  0 I1Cent=   200000004 NGrid=           0
         NMat0=    1 NMatS0=      1 NMatT0=    0 NMatD0=    1 NMtDS0=    0 NMtDT0=    0
 Petite list used in FoFCou.
 Requested convergence on RMS density matrix=1.00D-08 within 128 cycles.
 Requested convergence on MAX density matrix=1.00D-06.
 Requested convergence on             energy=1.00D-06.
 No special actions if energy rises.
 Inv3:  Mode=1 IEnd=    10212075.
 Iteration    1 A*A^-1 deviation from unit magnitude is 5.11D-15 for   1828.
 Iteration    1 A*A^-1 deviation from orthogonality  is 1.74D-15 for   1707    467.
 Iteration    1 A^-1*A deviation from unit magnitude is 5.11D-15 for   1828.
 Iteration    1 A^-1*A deviation from orthogonality  is 3.01D-15 for   1836   1390.
 Error on total polarization charges =  0.01100
 SCF Done:  E(RM062X) =  -546.366228979     A.U. after   13 cycles
            NFock= 13  Conv=0.40D-08     -V/T= 2.0013
 D1PCM: PCM CHGder 1st derivatives, ID1Alg=3 FixD1E=F DoIter=F DoCFld=F I1PDM=0.
 Calling FoFJK, ICntrl=      2127 FMM=F ISym2X=0 I1Cent= 0 IOpClX= 0 NMat=1 NMatS=1 NMatT=0.
 ***** Axes restored to original set *****
 -------------------------------------------------------------------
 Center     Atomic                   Forces (Hartrees/Bohr)
 Number     Number              X              Y              Z
 -------------------------------------------------------------------
      1        6          -0.028949004   -0.000676615   -0.031529862
      2        6          -0.028500683   -0.000191973    0.009352408
      3        6           0.007976134    0.000249632    0.009995187
      4        6           0.012362746   -0.000186529    0.004879914
      5        6           0.005768199    0.000251149   -0.001345894
      6        6          -0.010061363   -0.000187304   -0.016086547
      7        9           0.019087045    0.003535427    0.011862590
      8        1          -0.030046381   -0.000078676    0.015337568
      9        1          -0.001302565    0.000022358    0.033238787
     10        1           0.028951376    0.000008910    0.016537463
     11        1           0.028134259    0.000018109   -0.017799874
     12        1          -0.001475365   -0.000080923   -0.033311035
     13        8           0.002149403    0.000465569    0.001186201
     14        6           0.036630262    0.000193838    0.021438371
     15        1          -0.020074085    0.031968929   -0.011706994
     16        1          -0.019986335   -0.032024778   -0.011658434
     17        1          -0.002926631   -0.016384826   -0.001700016
     18        9           0.002262989    0.013097702    0.001310165
 -------------------------------------------------------------------
 Cartesian Forces:  Max     0.036630262 RMS     0.016639301
 -----------------------------------------------------------------------------------------------
                       Internal Coordinate Forces (Hartree/Bohr or radian)
  Cent   Atom   N1       Length/X         N2         Alpha/Y        N3         Beta/Z          J
 -----------------------------------------------------------------------------------------------
      1  C 
      2  C        1   0.020102(     1)
      3  C        2   0.058276(     2)      1   0.030771(    18)
      4  C        3   0.078701(     3)      2   0.126410(    19)      1  -0.000227(    34)     0
      5  C        4   0.069239(     4)      3   0.148814(    20)      2  -0.000580(    35)     0
      6  C        5   0.035396(     5)      4   0.092956(    21)      3  -0.000577(    36)     0
      7  F        1  -0.020212(     6)      2  -0.001895(    22)      3   0.000236(    37)     0
      8  H        2   0.033690(     7)      3   0.003425(    23)      4  -0.000134(    38)     0
      9  H        3   0.033239(     8)      4   0.002562(    24)      5   0.000038(    39)     0
     10  H        4   0.033341(     9)      5  -0.000303(    25)      6   0.000015(    40)     0
     11  H        5   0.033265(    10)      6  -0.002651(    26)      1   0.000031(    41)     0
     12  H        6   0.033327(    11)      1  -0.002072(    27)      2  -0.000138(    42)     0
     13  O        7   0.001480(    12)      1   0.000007(    28)      3  -0.000006(    43)     0
     14  C       13   0.003934(    13)      1   0.000102(    29)      2  -0.000000(    44)     0
     15  H       14   0.039305(    14)      1   0.008190(    30)      2   0.000112(    45)     0
     16  H       14   0.039303(    15)      1   0.007963(    31)      2  -0.000115(    46)     0
     17  H        7  -0.003104(    16)      1   0.005242(    32)      2   0.000019(    47)     0
     18  F       17   0.013353(    17)      7  -0.000518(    33)      1  -0.000002(    48)     0
 -----------------------------------------------------------------------------------------------
 Internal  Forces:  Max     0.148813710 RMS     0.039056176

 GradGradGradGradGradGradGradGradGradGradGradGradGradGradGradGradGradGrad
 Berny optimization.
 Search for a local minimum.
 Step number   2 out of a maximum of   27
 All quantities printed in internal units (Hartrees-Bohrs-Radians)
 Update second derivatives using D2CorN and points    1    2
 DE= -7.62D-02 DEPred=-8.01D-02 R= 9.51D-01
 TightC=F SS=  1.41D+00  RLast= 3.00D-01 DXNew= 5.0454D-01 9.0000D-01
 Trust test= 9.51D-01 RLast= 3.00D-01 DXMaxT set to 5.05D-01
 The second derivative matrix:
                          d1        d2        d3        d4        d5
           d1           0.95702
           d2          -0.04972   0.95957
           d3          -0.32908   0.34455   1.35480
           d4          -0.27485   0.06277   0.34622   0.96244
           d5           0.06042  -0.27401  -0.32665  -0.04641   0.96056
           d6           0.00263   0.00280   0.00266   0.00321   0.00332
           d7           0.00367   0.00478   0.00648   0.00577   0.00507
           d8           0.00363   0.00473   0.00641   0.00571   0.00502
           d9           0.00369   0.00480   0.00650   0.00579   0.00510
           d10          0.00362   0.00472   0.00640   0.00570   0.00500
           d11          0.00382   0.00495   0.00667   0.00597   0.00527
           d12          0.00017   0.00024   0.00036   0.00029   0.00024
           d13          0.00217   0.00256   0.00298   0.00301   0.00286
           d14          0.00364   0.00482   0.00669   0.00585   0.00507
           d15          0.00363   0.00482   0.00669   0.00584   0.00506
           d16         -0.00025  -0.00037  -0.00059  -0.00046  -0.00037
           d17          0.00049   0.00073   0.00115   0.00090   0.00072
                          d6        d7        d8        d9        d10
           d6           0.45391
           d7           0.00285   0.48017
           d8           0.00281   0.00326   0.48011
           d9           0.00281   0.00332   0.00329   0.48023
           d10          0.00281   0.00325   0.00322   0.00328   0.48009
           d11          0.00280   0.00345   0.00342   0.00347   0.00340
           d12          0.00025   0.00014   0.00014   0.00014   0.00014
           d13         -0.00017   0.00216   0.00213   0.00215   0.00213
           d14          0.00340   0.00320   0.00317   0.00324   0.00316
           d15          0.00340   0.00320   0.00317   0.00323   0.00316
           d16         -0.00052  -0.00019  -0.00019  -0.00019  -0.00019
           d17          0.00100   0.00037   0.00037   0.00038   0.00037
                          d11       d12       d13       d14       d15
           d11          0.48049
           d12          0.00015   0.02330
           d13          0.00218   0.00015   1.04877
           d14          0.00338   0.00012   0.00237   0.47991
           d15          0.00337   0.00012   0.00236   0.00303   0.47991
           d16         -0.00021   0.00000  -0.00028  -0.00013  -0.00013
           d17          0.00042  -0.00000   0.00053   0.00027   0.00027
                          d16       d17
           d16          0.02719
           d17          0.00003   0.70667
 ITU=  1  0
     Eigenvalues ---    0.02330   0.02719   0.45255   0.47676   0.47688
     Eigenvalues ---    0.47688   0.47688   0.47688   0.47688   0.49703
     Eigenvalues ---    0.67187   0.67193   0.70507   0.70843   1.04892
     Eigenvalues ---    1.12472   2.02296
 RFO step:  Lambda=-4.11918243D-03 EMin= 2.33020105D-02
 Quartic linear search produced a step of  0.90924.
 Variable       Old X    -DE/DX   Delta X   Delta X   Delta X     New X
                                 (Linear)    (Quad)   (Total)
    d1        2.53290   0.02010   0.06934   0.00332   0.07266   2.60556
    d2        2.54380   0.05828   0.07924  -0.00874   0.07050   2.61430
    d3        2.55228   0.07870   0.08695  -0.02261   0.06434   2.61661
    d4        2.55831   0.06924   0.09244  -0.01319   0.07925   2.63756
    d5        2.55587   0.03540   0.09022  -0.00134   0.08888   2.64474
    d6        2.61925  -0.02021  -0.02397  -0.04459  -0.06856   2.55070
    d7        1.96789   0.03369   0.07107   0.01509   0.08616   2.05405
    d8        1.96691   0.03324   0.07018   0.01479   0.08496   2.05187
    d9        1.96735   0.03334   0.07058   0.01451   0.08509   2.05244
   d10        1.96691   0.03326   0.07017   0.01490   0.08507   2.05198
   d11        1.96789   0.03333   0.07107   0.01361   0.08468   2.05257
   d12        5.29715   0.00148   0.00538   0.07886   0.08424   5.38139
   d13        2.27866   0.00393   0.00999  -0.00876   0.00122   2.27988
   d14        1.97813   0.03931   0.08038   0.02195   0.10233   2.08047
   d15        1.97812   0.03930   0.08037   0.02197   0.10234   2.08045
   d16        4.33482  -0.00310  -0.01051  -0.14618  -0.15669   4.17813
   d17        1.72290   0.01335   0.02014   0.00348   0.02362   1.74652
         Item               Value     Threshold  Converged?
 Maximum Force            0.078701     0.000450     NO 
 RMS     Force            0.038588     0.000300     NO 
 Maximum Displacement     0.156685     0.001800     NO 
 RMS     Displacement     0.084960     0.001200     NO 
 Predicted change in Energy=-1.547490D-02
 GradGradGradGradGradGradGradGradGradGradGradGradGradGradGradGradGradGrad

 ---------------------------------------------------------------------------------------------------
                            Z-MATRIX (ANGSTROMS AND DEGREES)
   CD    Cent   Atom    N1       Length/X        N2       Alpha/Y        N3        Beta/Z          J
 ---------------------------------------------------------------------------------------------------
      1      1  C 
      2      2  C        1   1.378803(     1)
      3      3  C        2   1.383427(     2)      1  120.000(    18)
      4      4  C        3   1.384652(     3)      2  120.000(    19)      1    0.000(    34)      0
      5      5  C        4   1.395739(     4)      3  120.000(    20)      2    0.000(    35)      0
      6      6  C        5   1.399539(     5)      4  120.000(    21)      3    0.000(    36)      0
      7      7  F        1   1.349771(     6)      2  120.000(    22)      3  180.000(    37)      0
      8      8  H        2   1.086955(     7)      3  120.000(    23)      4  180.000(    38)      0
      9      9  H        3   1.085803(     8)      4  120.000(    24)      5  180.000(    39)      0
     10     10  H        4   1.086106(     9)      5  120.000(    25)      6  180.000(    40)      0
     11     11  H        5   1.085859(    10)      6  120.000(    26)      1  180.000(    41)      0
     12     12  H        6   1.086174(    11)      1  120.000(    27)      2  180.000(    42)      0
     13     13  O        7   2.847709(    12)      1  179.900(    28)      3  180.000(    43)      0
     14     14  C       13   1.206462(    13)      1  179.900(    29)      2  180.000(    44)      0
     15     15  H       14   1.100936(    14)      1  120.000(    30)      2   90.000(    45)      0
     16     16  H       14   1.100929(    15)      1  120.000(    31)      2  -90.000(    46)      0
     17     17  H        7   2.210972(    16)      1  100.000(    32)      2   90.000(    47)      0
     18     18  F       17   0.924219(    17)      7  160.000(    33)      1    0.000(    48)      0
 ---------------------------------------------------------------------------------------------------
                         Z-Matrix orientation:                         
 ---------------------------------------------------------------------
 Center     Atomic      Atomic             Coordinates (Angstroms)
 Number     Number       Type             X           Y           Z
 ---------------------------------------------------------------------
      1          6           0        0.000000    0.000000    0.000000
      2          6           0        0.000000    0.000000    1.378803
      3          6           0        1.198083    0.000000    2.070516
      4          6           0        2.397227    0.000000    1.378190
      5          6           0        2.397227    0.000000   -0.017549
      6          6           0        1.185191    0.000000   -0.717318
      7          9           0       -1.168936   -0.000000   -0.674885
      8          1           0       -0.941330   -0.000000    1.922280
      9          1           0        1.198083   -0.000000    3.156319
     10          1           0        3.337823   -0.000000    1.921243
     11          1           0        3.337608   -0.000000   -0.560479
     12          1           0        1.162751   -0.000000   -1.803261
     13          8           0       -3.632635   -0.000000   -2.103042
     14          6           0       -4.675690   -0.000000   -2.709331
     15          1           0       -5.151976    0.953438   -2.985315
     16          1           0       -5.151973   -0.953432   -2.985313
     17          1           0       -1.501430    2.177382   -0.866851
     18          9           0       -1.362443    3.087559   -0.786607
 ---------------------------------------------------------------------
                    Distance matrix (angstroms):
                    1          2          3          4          5
     1  C    0.000000
     2  C    1.378803   0.000000
     3  C    2.392162   1.383427   0.000000
     4  C    2.765159   2.397227   1.384652   0.000000
     5  C    2.397291   2.774256   2.407896   1.395739   0.000000
     6  C    1.385360   2.407987   2.787865   2.420782   1.399539
     7  F    1.349771   2.363059   3.624915   4.114928   3.626239
     8  H    2.140389   1.086955   2.144543   3.382602   3.861205
     9  H    3.376056   2.143587   1.085803   2.144689   3.392843
    10  H    3.851264   3.381612   2.144940   1.086106   2.154910
    11  H    3.384341   3.860109   3.391121   2.154705   1.085859
    12  H    2.145633   3.387848   3.873938   3.412559   2.170874
    13  O    4.197478   5.031827   6.383919   6.962630   6.380323
    14  C    5.403939   6.210871   7.572856   8.169087   7.567817
    15  H    6.030257   6.818902   8.172742   8.771527   8.167444
    16  H    6.030253   6.818898   8.172738   8.771523   8.167440
    17  H    2.783292   3.469617   4.544941   4.998072   4.545529
    18  F    3.465259   4.009772   4.924679   5.324893   4.925402
                    6          7          8          9         10
     6  C    0.000000
     7  F    2.354509   0.000000
     8  H    3.389627   2.607120   0.000000
     9  H    3.873659   4.503433   2.469806   0.000000
    10  H    3.405265   5.201034   4.279153   2.470607   0.000000
    11  H    2.158124   4.507996   4.947061   4.288607   2.481722
    12  H    1.086174   2.590366   4.278646   4.959705   4.313104
    13  O    5.013151   2.847709   4.842142   7.141199   8.048736
    14  C    6.190157   4.054170   5.949560   8.301028   9.255194
    15  H    6.797980   4.702312   6.536289   8.885491   9.851905
    16  H    6.797976   4.702307   6.536284   8.885487   9.851901
    17  H    3.461399   2.210972   3.582451   5.311710   5.994400
    18  F    4.003531   3.095634   4.128974   5.624587   6.241632
                   11         12         13         14         15
    11  H    0.000000
    12  H    2.504897   0.000000
    13  O    7.138893   4.804748   0.000000
    14  C    8.296416   5.908330   1.206462   0.000000
    15  H    8.880423   6.494773   1.998961   1.100936   0.000000
    16  H    8.880419   6.494769   1.998955   1.100929   1.906871
    17  H    5.315181   3.565910   3.288038   4.267511   4.394589
    18  F    5.628022   4.116213   4.052135   4.920112   4.873331
                   16         17         18
    16  H    0.000000
    17  H    5.255125   0.000000
    18  F    5.960240   0.924219   0.000000
 Stoichiometry    C7H8F2O
 Framework group  C1[X(C7H8F2O)]
 Deg. of freedom    48
 Full point group                 C1      NOp   1
 Largest Abelian subgroup         C1      NOp   1
 Largest concise Abelian subgroup C1      NOp   1
                         Standard orientation:                         
 ---------------------------------------------------------------------
 Center     Atomic      Atomic             Coordinates (Angstroms)
 Number     Number       Type             X           Y           Z
 ---------------------------------------------------------------------
      1          6           0       -0.642992   -0.353902   -0.007576
      2          6           0       -1.331244   -0.302016   -1.201190
      3          6           0       -2.711848   -0.213677   -1.200309
      4          6           0       -3.402501   -0.177368   -0.000750
      5          6           0       -2.705794   -0.229892    1.207525
      6          6           0       -1.309112   -0.319259    1.206634
      7          9           0        0.704024   -0.440091   -0.008436
      8          1           0       -0.789080   -0.330519   -2.142846
      9          1           0       -3.253845   -0.172817   -2.140276
     10          1           0       -4.486391   -0.108015   -0.000059
     11          1           0       -3.247412   -0.201417    2.148232
     12          1           0       -0.747655   -0.361292    2.135489
     13          8           0        3.545918   -0.621963   -0.005279
     14          6           0        4.749913   -0.699025   -0.002513
     15          1           0        5.360141    0.217292    0.004257
     16          1           0        5.238370   -1.685646   -0.008251
     17          1           0        1.226214    1.708284    0.005603
     18          9           0        1.124174    2.626832    0.011675
 ---------------------------------------------------------------------
 Rotational constants (GHZ):           2.0515459           0.4785463           0.4487173
 Standard basis: 6-311++G(d,p) (5D, 7F)
 There are   286 symmetry adapted cartesian basis functions of A   symmetry.
 There are   276 symmetry adapted basis functions of A   symmetry.
   276 basis functions,   432 primitive gaussians,   286 cartesian basis functions
    38 alpha electrons       38 beta electrons
       nuclear repulsion energy       470.0557311739 Hartrees.
 NAtoms=   18 NActive=   18 NUniq=   18 SFac= 1.00D+00 NAtFMM=   60 NAOKFM=F Big=F
 Integral buffers will be    131072 words long.
 Raffenetti 2 integral format.
 Two-electron integral symmetry is turned on.
 ------------------------------------------------------------------------------
 Polarizable Continuum Model (PCM)
 =================================
 Model                : PCM.
 Atomic radii         : UFF (Universal Force Field).
 Polarization charges : Total charges.
 Charge compensation  : None.
 Solution method      : On-the-fly selection.
 Cavity type          : Scaled VdW (van der Waals Surface) (Alpha=1.100).
 Cavity algorithm     : GePol (No added spheres)
                        Default sphere list used, NSphG=   18.
                        Lebedev-Laikov grids with approx.  5.0 points / Ang**2.
                        Smoothing algorithm: York/Karplus (Gamma=1.0000).
                        Polarization charges: spherical gaussians, with
                                              point-specific exponents (IZeta= 3).
                        Self-potential: point-specific (ISelfS= 7).
                        Self-field    : sphere-specific E.n sum rule (ISelfD= 2).
 1st derivatives      : Analytical E(r).r(x)/FMM algorithm (CHGder, D1EAlg=3).
                        Cavity 1st derivative terms included.
 Solvent              : DiChloroEthane, Eps=  10.125000 Eps(inf)=   2.087447
 ------------------------------------------------------------------------------
 Spheres list:
 ISph  on   Nord     Re0    Alpha      Xe            Ye            Ze
    1   C      1    1.9255  1.100     -0.642992     -0.353902     -0.007576
    2   C      2    1.9255  1.100     -1.331244     -0.302016     -1.201190
    3   C      3    1.9255  1.100     -2.711848     -0.213677     -1.200309
    4   C      4    1.9255  1.100     -3.402501     -0.177368     -0.000750
    5   C      5    1.9255  1.100     -2.705794     -0.229892      1.207525
    6   C      6    1.9255  1.100     -1.309112     -0.319259      1.206634
    7   F      7    1.6820  1.100      0.704024     -0.440091     -0.008436
    8   H      8    1.4430  1.100     -0.789080     -0.330519     -2.142846
    9   H      9    1.4430  1.100     -3.253845     -0.172817     -2.140276
   10   H     10    1.4430  1.100     -4.486391     -0.108015     -0.000059
   11   H     11    1.4430  1.100     -3.247412     -0.201417      2.148232
   12   H     12    1.4430  1.100     -0.747655     -0.361292      2.135489
   13   O     13    1.7500  1.100      3.545918     -0.621963     -0.005279
   14   C     14    1.9255  1.100      4.749913     -0.699025     -0.002513
   15   H     15    1.4430  1.100      5.360141      0.217292      0.004257
   16   H     16    1.4430  1.100      5.238370     -1.685646     -0.008251
   17   H     17    1.4430  1.100      1.226214      1.708284      0.005603
   18   F     18    1.6820  1.100      1.124174      2.626832      0.011675
 ------------------------------------------------------------------------------
 One-electron integrals computed using PRISM.
 NBasis=   276 RedAO= T EigKep=  1.05D-06  NBF=   276
 NBsUse=   276 1.00D-06 EigRej= -1.00D+00 NBFU=   276
 Initial guess from the checkpoint file:  "/home/lywu/software/g16/scr/Gau-5980.chk"
 B after Tr=     0.000000   -0.000000   -0.000000
         Rot=    0.999996   -0.000720   -0.000352   -0.002558 Ang=  -0.31 deg.
 ExpMin= 3.60D-02 ExpMax= 1.14D+04 ExpMxC= 1.72D+03 IAcc=3 IRadAn=         5 AccDes= 0.00D+00
 Harris functional with IExCor= 1009 and IRadAn=       5 diagonalized for initial guess.
 HarFok:  IExCor= 1009 AccDes= 0.00D+00 IRadAn=         5 IDoV= 1 UseB2=F ITyADJ=14
 ICtDFT=  3500011 ScaDFX=  1.000000  1.000000  1.000000  1.000000
 FoFCou: FMM=F IPFlag=           0 FMFlag=      100000 FMFlg1=           0
         NFxFlg=           0 DoJE=T BraDBF=F KetDBF=T FulRan=T
         wScrn=  0.000000 ICntrl=       500 IOpCl=  0 I1Cent=   200000004 NGrid=           0
         NMat0=    1 NMatS0=      1 NMatT0=    0 NMatD0=    1 NMtDS0=    0 NMtDT0=    0
 Petite list used in FoFCou.
 Requested convergence on RMS density matrix=1.00D-08 within 128 cycles.
 Requested convergence on MAX density matrix=1.00D-06.
 Requested convergence on             energy=1.00D-06.
[...]
      6          6           0        1.187204    0.000000   -0.719665
      7          9           0       -1.178238   -0.000000   -0.680256
      8          1           0       -0.938756   -0.000000    1.919771
      9          1           0        1.197706   -0.000000    3.151923
     10          1           0        3.336997   -0.000000    1.917165
     11          1           0        3.336619   -0.000000   -0.561272
     12          1           0        1.164073   -0.000000   -1.802635
     13          8           0       -4.133489   -0.000000   -2.393355
     14          6           0       -5.174360   -0.000000   -2.998464
     15          1           0       -5.650655    0.953471   -3.274470
     16          1           0       -5.650672   -0.953506   -3.274480
     17          1           0       -1.457408    1.828184   -0.841435
     18          9           0       -1.318150    2.740132   -0.761034
 ---------------------------------------------------------------------
                    Distance matrix (angstroms):
                    1          2          3          4          5
     1  C    0.000000
     2  C    1.377780   0.000000
     3  C    2.390900   1.382992   0.000000
     4  C    2.765510   2.399085   1.387231   0.000000
     5  C    2.399167   2.776572   2.410047   1.395647   0.000000
     6  C    1.388298   2.410131   2.788961   2.420546   1.399358
     7  F    1.360511   2.371446   3.633873   4.126018   3.637745
     8  H    2.137004   1.083983   2.141687   3.381898   3.860549
     9  H    3.371812   2.140580   1.082647   2.144392   3.391801
    10  H    3.848515   3.380308   2.144691   1.083008   2.152262
    11  H    3.383498   3.859139   3.390389   2.151902   1.082573
    12  H    2.145824   3.386754   3.872057   3.409811   2.168661
    13  O    4.776388   5.595283   6.952462   7.541882   6.950352
    14  C    5.980367   6.776837   8.141574   8.745857   8.138083
    15  H    6.600088   7.381222   8.738694   9.345112   8.734934
    16  H    6.600113   7.381246   8.738718   9.345135   8.734957
    17  H    2.484816   3.223540   4.343286   4.809397   4.346213
    18  F    3.134488   3.717576   4.674240   5.088381   4.677104
                    6          7          8          9         10
     6  C    0.000000
     7  F    2.365770   0.000000
     8  H    3.389149   2.611033   0.000000
     9  H    3.871602   4.508958   2.466307   0.000000
    10  H    3.402128   5.209024   4.275754   2.470059   0.000000
    11  H    2.155243   4.516424   4.943118   4.285180   2.478437
    12  H    1.083217   2.597336   4.275301   4.954672   4.307958
    13  O    5.577725   3.415878   5.367437   7.692318   8.624890
    14  C    6.757398   4.619858   6.490715   8.856099   9.828865
    15  H    7.361552   5.257525   7.077516   9.439687  10.423054
    16  H    7.361576   5.257551   7.077540   9.439710  10.423077
    17  H    3.217306   1.856387   3.351942   5.132134   5.825671
    18  F    3.713063   2.744890   3.852140   5.398990   6.029217
                   11         12         13         14         15
    11  H    0.000000
    12  H    2.502187   0.000000
    13  O    7.691492   5.330395   0.000000
    14  C    8.853060   6.450251   1.203981   0.000000
    15  H    9.436188   7.036755   1.996813   1.100974   0.000000
    16  H    9.436211   7.036779   1.996848   1.101014   1.906978
    17  H    5.138429   3.337413   3.593344   4.670200   4.926266
    18  F    5.405100   3.841183   4.254283   5.233046   5.317905
                   16         17         18
    16  H    0.000000
    17  H    5.589363   0.000000
    18  F    6.223433   0.926016   0.000000
 Stoichiometry    C7H8F2O
 Framework group  C1[X(C7H8F2O)]
 Deg. of freedom    48
 Full point group                 C1      NOp   1
 Largest Abelian subgroup         C1      NOp   1
 Largest concise Abelian subgroup C1      NOp   1
                         Standard orientation:                         
 ---------------------------------------------------------------------
 Center     Atomic      Atomic             Coordinates (Angstroms)
 Number     Number       Type             X           Y           Z
 ---------------------------------------------------------------------
      1          6           0       -0.748139   -0.319891   -0.012489
      2          6           0       -1.436490   -0.271592   -1.205014
      3          6           0       -2.818463   -0.218521   -1.204078
      4          6           0       -3.511600   -0.213918   -0.002433
      5          6           0       -2.814322   -0.262844    1.205557
      6          6           0       -1.415995   -0.316543    1.204610
      7          9           0        0.611370   -0.372099   -0.013409
      8          1           0       -0.894873   -0.275188   -2.143980
      9          1           0       -3.359363   -0.180568   -2.141154
     10          1           0       -4.593810   -0.172359   -0.001700
     11          1           0       -3.355235   -0.259252    2.143302
     12          1           0       -0.854916   -0.355064    2.130388
     13          8           0        4.024726   -0.503289   -0.009761
     14          6           0        5.227814   -0.549556   -0.006972
     15          1           0        5.814489    0.381912    0.010995
     16          1           0        5.741319   -1.523341   -0.023924
     17          1           0        1.003656    1.442061    0.019849
     18          9           0        0.877974    2.359354    0.036657
 ---------------------------------------------------------------------
 Rotational constants (GHZ):           2.3578869           0.4195141           0.4066829

 **********************************************************************

            Population analysis using the SCF Density.

 **********************************************************************

 Orbital symmetries:
       Occupied  (A) (A) (A) (A) (A) (A) (A) (A) (A) (A) (A) (A)
                 (A) (A) (A) (A) (A) (A) (A) (A) (A) (A) (A) (A)
                 (A) (A) (A) (A) (A) (A) (A) (A) (A) (A) (A) (A)
                 (A) (A)
       Virtual   (A) (A) (A) (A) (A) (A) (A) (A) (A) (A) (A) (A)
                 (A) (A) (A) (A) (A) (A) (A) (A) (A) (A) (A) (A)
                 (A) (A) (A) (A) (A) (A) (A) (A) (A) (A) (A) (A)
                 (A) (A) (A) (A) (A) (A) (A) (A) (A) (A) (A) (A)
                 (A) (A) (A) (A) (A) (A) (A) (A) (A) (A) (A) (A)
                 (A) (A) (A) (A) (A) (A) (A) (A) (A) (A) (A) (A)
                 (A) (A) (A) (A) (A) (A) (A) (A) (A) (A) (A) (A)
                 (A) (A) (A) (A) (A) (A) (A) (A) (A) (A) (A) (A)
                 (A) (A) (A) (A) (A) (A) (A) (A) (A) (A) (A) (A)
                 (A) (A) (A) (A) (A) (A) (A) (A) (A) (A) (A) (A)
                 (A) (A) (A) (A) (A) (A) (A) (A) (A) (A) (A) (A)
                 (A) (A) (A) (A) (A) (A) (A) (A) (A) (A) (A) (A)
                 (A) (A) (A) (A) (A) (A) (A) (A) (A) (A) (A) (A)
                 (A) (A) (A) (A) (A) (A) (A) (A) (A) (A) (A) (A)
                 (A) (A) (A) (A) (A) (A) (A) (A) (A) (A) (A) (A)
                 (A) (A) (A) (A) (A) (A) (A) (A) (A) (A) (A) (A)
                 (A) (A) (A) (A) (A) (A) (A) (A) (A) (A) (A) (A)
                 (A) (A) (A) (A) (A) (A) (A) (A) (A) (A) (A) (A)
                 (A) (A) (A) (A) (A) (A) (A) (A) (A) (A) (A) (A)
                 (A) (A) (A) (A) (A) (A) (A) (A) (A) (A)
 The electronic state is 1-A.
 Alpha  occ. eigenvalues --  -25.28078 -25.22704 -19.64567 -10.64326 -10.63909
 Alpha  occ. eigenvalues --  -10.56300 -10.56194 -10.56029 -10.55926 -10.55421
 Alpha  occ. eigenvalues --   -1.39715  -1.33739  -1.19276  -0.98339  -0.86612
 Alpha  occ. eigenvalues --   -0.86218  -0.72298  -0.72151  -0.71834  -0.65125
 Alpha  occ. eigenvalues --   -0.64202  -0.59147  -0.58488  -0.58337  -0.58320
 Alpha  occ. eigenvalues --   -0.53943  -0.52643  -0.51203  -0.51125  -0.50887
 Alpha  occ. eigenvalues --   -0.49908  -0.47780  -0.45168  -0.44146  -0.41973
 Alpha  occ. eigenvalues --   -0.34870  -0.32724  -0.31914
 Alpha virt. eigenvalues --   -0.00780  -0.00160   0.00224   0.00753   0.01082
 Alpha virt. eigenvalues --    0.01427   0.01953   0.02717   0.03396   0.03732
 Alpha virt. eigenvalues --    0.04765   0.06365   0.06721   0.07553   0.07679
 Alpha virt. eigenvalues --    0.09169   0.10068   0.11119   0.11260   0.11762
 Alpha virt. eigenvalues --    0.12824   0.13093   0.13355   0.13537   0.13626
 Alpha virt. eigenvalues --    0.13984   0.14037   0.14935   0.15240   0.15414
 Alpha virt. eigenvalues --    0.16185   0.16523   0.17049   0.18210   0.19628
 Alpha virt. eigenvalues --    0.20023   0.20460   0.21424   0.22036   0.22169
 Alpha virt. eigenvalues --    0.23002   0.24166   0.25350   0.25872   0.27361
 Alpha virt. eigenvalues --    0.28373   0.29794   0.29937   0.30265   0.30935
 Alpha virt. eigenvalues --    0.31291   0.32655   0.32997   0.33346   0.33786
 Alpha virt. eigenvalues --    0.36452   0.37603   0.38037   0.39967   0.40548
 Alpha virt. eigenvalues --    0.41363   0.41736   0.42564   0.46212   0.49169
 Alpha virt. eigenvalues --    0.49851   0.51655   0.52596   0.54657   0.54963
 Alpha virt. eigenvalues --    0.56388   0.57700   0.58245   0.58628   0.58883
 Alpha virt. eigenvalues --    0.59503   0.59605   0.61018   0.63085   0.63279
 Alpha virt. eigenvalues --    0.64340   0.66960   0.67708   0.71003   0.71811
 Alpha virt. eigenvalues --    0.72683   0.76392   0.76616   0.79842   0.81256
 Alpha virt. eigenvalues --    0.82879   0.84945   0.87845   0.88704   0.90118
 Alpha virt. eigenvalues --    0.91285   0.92921   0.93653   0.94028   0.97523
 Alpha virt. eigenvalues --    1.03139   1.04315   1.04899   1.05093   1.06534
 Alpha virt. eigenvalues --    1.08121   1.12033   1.12173   1.14473   1.15306
 Alpha virt. eigenvalues --    1.17985   1.21689   1.22878   1.31839   1.33523
 Alpha virt. eigenvalues --    1.33808   1.36638   1.39659   1.41170   1.44314
 Alpha virt. eigenvalues --    1.45756   1.47386   1.48734   1.49034   1.52205
 Alpha virt. eigenvalues --    1.54582   1.55058   1.56426   1.59158   1.59952
 Alpha virt. eigenvalues --    1.60771   1.61800   1.62715   1.67530   1.68198
 Alpha virt. eigenvalues --    1.68716   1.70206   1.73631   1.76886   1.77110
 Alpha virt. eigenvalues --    1.77904   1.79822   1.86108   1.86599   1.90119
 Alpha virt. eigenvalues --    1.91193   1.93659   1.94455   1.96041   1.96276
 Alpha virt. eigenvalues --    1.98743   1.99101   2.01357   2.04303   2.06499
 Alpha virt. eigenvalues --    2.10021   2.10196   2.13210   2.17185   2.29726
 Alpha virt. eigenvalues --    2.30208   2.35109   2.37854   2.43664   2.43889
 Alpha virt. eigenvalues --    2.47032   2.48501   2.50185   2.52375   2.52705
 Alpha virt. eigenvalues --    2.57438   2.64859   2.66301   2.69463   2.71506
 Alpha virt. eigenvalues --    2.72534   2.72792   2.73722   2.75683   2.76514
 Alpha virt. eigenvalues --    2.79337   2.83848   2.85165   2.85436   2.87994
 Alpha virt. eigenvalues --    2.93849   2.94238   2.94348   2.97788   2.98031
 Alpha virt. eigenvalues --    3.13797   3.18298   3.24568   3.38733   3.39190
 Alpha virt. eigenvalues --    3.42121   3.48220   3.52801   3.55225   3.56349
 Alpha virt. eigenvalues --    3.66378   3.74345   3.78811   3.85619   3.89388
 Alpha virt. eigenvalues --    3.89513   3.93594   3.96714   4.02713   4.04620
 Alpha virt. eigenvalues --    4.08822   4.12941   4.15435   4.15806   4.18762
 Alpha virt. eigenvalues --    4.19604   4.85547   4.88719   4.93916   5.09814
 Alpha virt. eigenvalues --    5.20976   5.77289   6.42390   6.47906   6.52198
 Alpha virt. eigenvalues --    6.57947   6.82444   6.91152  23.66186  23.99240
 Alpha virt. eigenvalues --   24.00946  24.04962  24.15421  24.16828  24.27574
 Alpha virt. eigenvalues --   50.03952  66.90828  66.94460
          Condensed to atoms (all electrons):
               1          2          3          4          5          6
     1  C   13.018344  -4.758384   2.284522  -2.571062   2.245084  -4.154441
     2  C   -4.758384  12.765395  -2.534466   2.199649  -2.482261   0.625061
     3  C    2.284522  -2.534466   8.309939  -1.730023   2.070280  -2.495489
     4  C   -2.571062   2.199649  -1.730023   7.577134  -1.658520   2.089028
     5  C    2.245084  -2.482261   2.070280  -1.658520   8.094149  -2.358737
     6  C   -4.154441   0.625061  -2.495489   2.089028  -2.358737  12.122020
     7  F    0.756635  -0.502050   0.137621  -0.083167   0.134536  -0.480916
     8  H   -0.237123   0.625186  -0.087545   0.058297  -0.043299   0.003131
     9  H    0.043699  -0.047616   0.357027  -0.036558  -0.001873   0.015872
    10  H    0.010908  -0.014884   0.002305   0.347126   0.002406  -0.013413
    11  H    0.035185   0.018239  -0.003940  -0.031970   0.354934  -0.042949
    12  H   -0.217430   0.004190  -0.045010   0.054971  -0.083339   0.605998
    13  O    0.007913  -0.000370  -0.000902   0.000146  -0.000841  -0.000470
    14  C    0.000876  -0.002035   0.000671  -0.000207   0.000657  -0.001698
    15  H    0.000044   0.000053  -0.000036   0.000009  -0.000035   0.000032
    16  H   -0.000015   0.000011   0.000000   0.000002   0.000000   0.000010
    17  H   -0.077035   0.035694  -0.003271   0.006445  -0.003336   0.034399
    18  F    0.120019  -0.025761  -0.025673   0.010809  -0.024775  -0.024573
               7          8          9         10         11         12
     1  C    0.756635  -0.237123   0.043699   0.010908   0.035185  -0.217430
     2  C   -0.502050   0.625186  -0.047616  -0.014884   0.018239   0.004190
     3  C    0.137621  -0.087545   0.357027   0.002305  -0.003940  -0.045010
     4  C   -0.083167   0.058297  -0.036558   0.347126  -0.031970   0.054971
     5  C    0.134536  -0.043299  -0.001873   0.002406   0.354934  -0.083339
     6  C   -0.480916   0.003131   0.015872  -0.013413  -0.042949   0.605998
     7  F    9.205770  -0.027874   0.001714  -0.000813   0.001509  -0.027679
     8  H   -0.027874   0.460309  -0.003398   0.000914   0.000697   0.002112
     9  H    0.001714  -0.003398   0.432832   0.001251  -0.000552   0.000618
    10  H   -0.000813   0.000914   0.001251   0.437978   0.001450   0.000852
    11  H    0.001509   0.000697  -0.000552   0.001450   0.432216  -0.002504
    12  H   -0.027679   0.002112   0.000618   0.000852  -0.002504   0.457463
    13  O    0.004411   0.001128  -0.000010   0.000000  -0.000010   0.001163
    14  C    0.000690  -0.000379   0.000008  -0.000002   0.000007  -0.000381
    15  H   -0.000294  -0.000012   0.000000   0.000000   0.000000  -0.000013
    16  H   -0.000072   0.000006  -0.000000  -0.000000  -0.000000   0.000006
    17  H    0.040949   0.000081  -0.000027  -0.000012  -0.000022   0.000045
    18  F   -0.019557  -0.000342  -0.000816   0.000170  -0.000827  -0.000296
              13         14         15         16         17         18
     1  C    0.007913   0.000876   0.000044  -0.000015  -0.077035   0.120019
     2  C   -0.000370  -0.002035   0.000053   0.000011   0.035694  -0.025761
     3  C   -0.000902   0.000671  -0.000036   0.000000  -0.003271  -0.025673
     4  C    0.000146  -0.000207   0.000009   0.000002   0.006445   0.010809
     5  C   -0.000841   0.000657  -0.000035   0.000000  -0.003336  -0.024775
     6  C   -0.000470  -0.001698   0.000032   0.000010   0.034399  -0.024573
     7  F    0.004411   0.000690  -0.000294  -0.000072   0.040949  -0.019557
     8  H    0.001128  -0.000379  -0.000012   0.000006   0.000081  -0.000342
     9  H   -0.000010   0.000008   0.000000  -0.000000  -0.000027  -0.000816
    10  H    0.000000  -0.000002   0.000000  -0.000000  -0.000012   0.000170
    11  H   -0.000010   0.000007   0.000000  -0.000000  -0.000022  -0.000827
    12  H    0.001163  -0.000381  -0.000013   0.000006   0.000045  -0.000296
    13  O    8.146091   0.302479  -0.083072  -0.082503   0.001899  -0.001016
    14  C    0.302479   4.872856   0.395763   0.396674   0.000614  -0.000514
    15  H   -0.083072   0.395763   0.653835  -0.102892  -0.000251   0.000201
    16  H   -0.082503   0.396674  -0.102892   0.655412  -0.000012  -0.000069
    17  H    0.001899   0.000614  -0.000251  -0.000012   0.390621   0.311793
    18  F   -0.001016  -0.000514   0.000201  -0.000069   0.311793   8.957298
 Mulliken charges:
               1
     1  C   -0.507741
     2  C    0.094349
     3  C   -0.236011
     4  C   -0.232110
     5  C   -0.245030
     6  C    0.077136
     7  F   -0.141412
     8  H    0.248109
     9  H    0.237830
    10  H    0.223764
    11  H    0.238536
    12  H    0.249232
    13  O   -0.296037
    14  C    0.033921
    15  H    0.136667
    16  H    0.133442
    17  H    0.261427
    18  F   -0.276071
 Sum of Mulliken charges =  -0.00000
 Mulliken charges with hydrogens summed into heavy atoms:
               1
     1  C   -0.507741
     2  C    0.342459
     3  C    0.001819
     4  C   -0.008346
     5  C   -0.006494
     6  C    0.326368
     7  F   -0.141412
    13  O   -0.296037
    14  C    0.304030
    18  F   -0.014645
 Electronic spatial extent (au):  <R**2>=           2710.0875
 Charge=             -0.0000 electrons
 Dipole moment (field-independent basis, Debye):
    X=              0.6818    Y=             -2.4428    Z=             -0.0506  Tot=              2.5367
 Quadrupole moment (field-independent basis, Debye-Ang):
   XX=            -21.3431   YY=            -68.7681   ZZ=            -50.4875
   XY=             -3.3366   XZ=              0.0983   YZ=             -0.3237
 Traceless Quadrupole moment (field-independent basis, Debye-Ang):
   XX=             25.5232   YY=            -21.9019   ZZ=             -3.6213
   XY=             -3.3366   XZ=              0.0983   YZ=             -0.3237
 Octapole moment (field-independent basis, Debye-Ang**2):
  XXX=            188.4063  YYY=             -7.1432  ZZZ=             -0.0794  XYY=             19.6713
  XXY=            -14.3303  XXZ=             -0.3549  XZZ=             -1.8427  YZZ=              1.8756
  YYZ=             -0.2908  XYZ=              0.3457
 Hexadecapole moment (field-independent basis, Debye-Ang**3):
 XXXX=          -1497.8447 YYYY=           -345.8826 ZZZZ=           -267.0702 XXXY=           -108.2524
 XXXZ=             -0.1944 YYYX=            -31.6651 YYYZ=              0.1532 ZZZX=              0.6583
 ZZZY=             -0.6713 XXYY=           -536.0553 XXZZ=           -495.2836 YYZZ=           -107.7287
 XXYZ=             -0.6529 YYXZ=             -0.3712 ZZXY=              2.9485
 N-N= 4.661164252521D+02 E-N=-2.217233857816D+03  KE= 5.445917355796D+02
 1\1\GINC-LOCALHOST\POpt\RM062X\6-311++G(d,p)\C7H8F2O1\LYWU\06-Jan-2025
 \1\\# m062x 6-311++G(d,p) opt=z-matrix scrf=(solvent=dichloroethane)\\
 test\\0,1\C\C,1,d1\C,2,d2,1,120.\C,3,d3,2,120.,1,0.,0\C,4,d4,3,120.,2,
 0.,0\C,5,d5,4,120.,3,0.,0\F,1,d6,2,120.,3,180.,0\H,2,d7,3,120.,4,180.,
 0\H,3,d8,4,120.,5,180.,0\H,4,d9,5,120.,6,180.,0\H,5,d10,6,120.,1,180.,
 0\H,6,d11,1,120.,2,180.,0\O,7,d12,1,179.9,3,180.,0\C,13,d13,1,179.9,2,
 180.,0\H,14,d14,1,120.,2,90.,0\H,14,d15,1,120.,2,-90.,0\H,7,d16,1,100.
 ,2,90.,0\F,17,d17,7,160.,1,0.,0\\d1=1.37778014\d2=1.3829922\d3=1.38723
 143\d4=1.39564653\d5=1.3993582\d6=1.36051149\d7=1.08398255\d8=1.082646
 75\d9=1.08300803\d10=1.08257261\d11=1.08321685\d12=3.41587769\d13=1.20
 39807\d14=1.10097382\d15=1.10101414\d16=1.85638709\d17=0.92601563\\Ver
 sion=ES64L-G16RevB.01\State=1-A\HF=-546.3890638\RMSD=6.347e-09\RMSF=4.
 169e-03\Dipole=-0.2652412,-0.9502722,-0.1504724\Quadrupole=13.5617278,
 -16.4259665,2.8642386,0.9758246,9.4993725,0.5482924\PG=C01 [X(C7H8F2O1
 )]\\@


 I KNOW YOU BELIEVE YOU UNDERSTAND WHAT YOU THINK I SAID,
 BUT I AM NOT SURE YOU REALIZE THAT WHAT YOU HEARD IS NOT WHAT I MEANT.
 Job cpu time:       0 days  1 hours 24 minutes  7.4 seconds.
 Elapsed time:       0 days  0 hours 42 minutes  8.9 seconds.
 File lengths (MBytes):  RWF=    159 Int=      0 D2E=      0 Chk=     11 Scr=      1
 Normal termination of Gaussian 16 at Mon Jan  6 19:24:53 2025.
