 Entering Gaussian System, Link 0=g16
 Input=model_H3.gjf
 Output=model_H3.log
 Initial command:
 /home/zjxu/prog/g16/l1.exe "/home/zjxu/zjhan/5_model/HCl/chloroform/Gau-32159.inp" -scrdir="/home/zjxu/zjhan/5_model/HCl/chloroform/"
 Entering Link 1 = /home/zjxu/prog/g16/l1.exe PID=     32160.
  
 Copyright (c) 1988-2017, Gaussian, Inc.  All Rights Reserved.
  
 This is part of the Gaussian(R) 16 program.  It is based on
 the Gaussian(R) 09 system (copyright 2009, Gaussian, Inc.),
 the Gaussian(R) 03 system (copyright 2003, Gaussian, Inc.),
 the Gaussian(R) 98 system (copyright 1998, Gaussian, Inc.),
 the Gaussian(R) 94 system (copyright 1995, Gaussian, Inc.),
 the Gaussian 92(TM) system (copyright 1992, Gaussian, Inc.),
 the Gaussian 90(TM) system (copyright 1990, Gaussian, Inc.),
 the Gaussian 88(TM) system (copyright 1988, Gaussian, Inc.),
 the Gaussian 86(TM) system (copyright 1986, Carnegie Mellon
 University), and the Gaussian 82(TM) system (copyright 1983,
 Carnegie Mellon University). Gaussian is a federally registered
 trademark of Gaussian, Inc.
  
 This software contains proprietary and confidential information,
 including trade secrets, belonging to Gaussian, Inc.
  
 This software is provided under written license and may be
 used, copied, transmitted, or stored only in accord with that
 written license.
  
 The following legend is applicable only to US Government
 contracts under FAR:
  
                    RESTRICTED RIGHTS LEGEND
  
 Use, reproduction and disclosure by the US Government is
 subject to restrictions as set forth in subparagraphs (a)
 and (c) of the Commercial Computer Software - Restricted
 Rights clause in FAR 52.227-19.
  
 Gaussian, Inc.
 340 Quinnipiac St., Bldg. 40, Wallingford CT 06492
  
  
 ---------------------------------------------------------------
 Warning -- This program may not be used in any manner that
 competes with the business of Gaussian, Inc. or will provide
 assistance to any competitor of Gaussian, Inc.  The licensee
 of this program is prohibited from giving any competitor of
 Gaussian, Inc. access to this program.  By using this program,
 the user acknowledges that Gaussian, Inc. is engaged in the
 business of creating and licensing software in the field of
 computational chemistry and represents and warrants to the
 licensee that it is not a competitor of Gaussian, Inc. and that
 it will not use this program in any manner prohibited above.
 ---------------------------------------------------------------
  

 Cite this work as:
 Gaussian 16, Revision B.01,
 M. J. Frisch, G. W. Trucks, H. B. Schlegel, G. E. Scuseria, 
 M. A. Robb, J. R. Cheeseman, G. Scalmani, V. Barone, 
 G. A. Petersson, H. Nakatsuji, X. Li, M. Caricato, A. V. Marenich, 
 J. Bloino, B. G. Janesko, R. Gomperts, B. Mennucci, H. P. Hratchian, 
 J. V. Ortiz, A. F. Izmaylov, J. L. Sonnenberg, D. Williams-Young, 
 F. Ding, F. Lipparini, F. Egidi, J. Goings, B. Peng, A. Petrone, 
 T. Henderson, D. Ranasinghe, V. G. Zakrzewski, J. Gao, N. Rega, 
 G. Zheng, W. Liang, M. Hada, M. Ehara, K. Toyota, R. Fukuda, 
 J. Hasegawa, M. Ishida, T. Nakajima, Y. Honda, O. Kitao, H. Nakai, 
 T. Vreven, K. Throssell, J. A. Montgomery, Jr., J. E. Peralta, 
 F. Ogliaro, M. J. Bearpark, J. J. Heyd, E. N. Brothers, K. N. Kudin, 
 V. N. Staroverov, T. A. Keith, R. Kobayashi, J. Normand, 
 K. Raghavachari, A. P. Rendell, J. C. Burant, S. S. Iyengar, 
 J. Tomasi, M. Cossi, J. M. Millam, M. Klene, C. Adamo, R. Cammi, 
 J. W. Ochterski, R. L. Martin, K. Morokuma, O. Farkas, 
 J. B. Foresman, and D. J. Fox, Gaussian, Inc., Wallingford CT, 2016.
 
 ******************************************
 Gaussian 16:  ES64L-G16RevB.01 20-Dec-2017
                 2-Apr-2024 
 ******************************************
 %mem=4GB
 %nproc=4
 Will use up to    4 processors via shared memory.
 %chk=model_H3
 ----------------------------------------------------------------------
 # m062x 6-311++G(d,p) opt=(recalc=5,z-matrix,maxcyc=50) scrf=(solvent=
 chloroform)
 ----------------------------------------------------------------------
 1/6=50,10=7,18=40,26=3,38=1,71=5/1,3;
 2/12=2,17=6,18=5,29=3,40=1/2;
 3/5=4,6=6,7=1111,11=2,25=1,30=1,70=2201,71=2,72=7,74=-55,140=1/1,2,3;
 4//1;
 5/5=2,38=5,53=7/2;
 8/6=4,10=90,11=11/1;
 11/6=1,8=1,9=11,15=111,16=1/1,2,10;
 10/6=1/2;
 6/7=2,8=2,9=2,10=2,28=1/1;
 7/10=1,25=1/1,2,3,16;
 1/6=50,10=7,18=40,26=3,71=5/3(3);
 2/29=3/2;
 7/9=1,25=1,44=-1/16;
 99//99;
 2/29=3/2;
 3/5=4,6=6,7=1111,11=2,25=1,30=1,70=2205,71=2,72=7,74=-55,140=1/1,2,3;
 4/5=5,16=3,69=1/1;
 5/5=2,38=5,53=7/2;
 8/6=4,10=90,11=11/1;
 11/6=1,8=1,9=11,15=111,16=1/1,2,10;
 10/6=1/2;
 7/10=1,25=1/1,2,3,16;
 1/6=50,18=40,26=3,71=5/3(-8);
 2/29=3/2;
 6/7=2,8=2,9=2,10=2,19=2,28=1/1;
 7/9=1,25=1,44=-1/16;
 99/9=1/99;
 ----
 test
 ----
 Symbolic Z-matrix:
 Charge =  0 Multiplicity = 1
 C1
 C2                   1    d1
 C3                   2    d2       1     120. 
 C4                   3    d3       2     120.     1     0.       0
 C5                   4    d4       3     120.     2     0.       0
 C6                   5    d5       4     120.     3     0.       0
 F7                   1    d6       2     120.     3     180.     0
 H8                   2    d7       3     120.     4     180.     0
 H9                   3    d8       4     120.     5     180.     0
 H10                  4    d9       5     120.     6     180.     0
 H11                  5    d10      6     120.     1     180.     0
 H12                  6    d11      1     120.     2     180.     0
 O13                  7    d12      1     179.9    3     180.     0
 C14                  13   d13      1     179.9    2     180.     0
 H15                  14   d14      1     120.     2     90.      0
 H16                  14   d15      1     120.     2    -90.      0
 H17                  7    d16      1     100.     2     90.      0
 Cl18                 17   d17      7     160.     1     0.       0
 H19                  7    d18      1     100.     2    -30.      0
 Cl20                 19   d19      7     160.     1     0.       0
 H21                  7    d18      1     100.     2    -150.     0
 Cl22                 21   d19      7     160.     1     0.       0
       Variables:
  d1                    1.3                      
  d2                    1.3                      
  d3                    1.3                      
  d4                    1.3                      
  d5                    1.3                      
  d6                    1.4                      
  d7                    1.                       
  d8                    1.                       
  d9                    1.                       
  d10                   1.                       
  d11                   1.                       
  d12                   2.8                      
  d13                   1.2                      
  d14                   1.                       
  d15                   1.                       
  d16                   2.3                      
  d17                   0.9                      
  d18                   2.3                      
  d19                   0.9                      
 

 GradGradGradGradGradGradGradGradGradGradGradGradGradGradGradGradGradGrad
 Berny optimization.
 Initialization pass.
                       ----------------------------
                       !    Initial Parameters    !
                       ! (Angstroms and Degrees)  !
 ----------------------                            ----------------------
 !      Name          Value   Derivative information (Atomic Units)     !
 ------------------------------------------------------------------------
 !       d1          1.3      calculate D2E/DX2 analytically            !
 !       d2          1.3      calculate D2E/DX2 analytically            !
 !       d3          1.3      calculate D2E/DX2 analytically            !
 !       d4          1.3      calculate D2E/DX2 analytically            !
 !       d5          1.3      calculate D2E/DX2 analytically            !
 !       d6          1.4      calculate D2E/DX2 analytically            !
 !       d7          1.0      calculate D2E/DX2 analytically            !
 !       d8          1.0      calculate D2E/DX2 analytically            !
 !       d9          1.0      calculate D2E/DX2 analytically            !
 !       d10         1.0      calculate D2E/DX2 analytically            !
 !       d11         1.0      calculate D2E/DX2 analytically            !
 !       d12         2.8      calculate D2E/DX2 analytically            !
 !       d13         1.2      calculate D2E/DX2 analytically            !
 !       d14         1.0      calculate D2E/DX2 analytically            !
 !       d15         1.0      calculate D2E/DX2 analytically            !
 !       d16         2.3      calculate D2E/DX2 analytically            !
 !       d17         0.9      calculate D2E/DX2 analytically            !
 !       d18         2.3      calculate D2E/DX2 analytically            !
 !       d19         0.9      calculate D2E/DX2 analytically            !
 ------------------------------------------------------------------------
 Trust Radius=3.00D-01 FncErr=1.00D-07 GrdErr=1.00D-06 EigMax=2.50D+02 EigMin=1.00D-04
 Number of steps in this run=     50 maximum allowed number of steps=    100.
 GradGradGradGradGradGradGradGradGradGradGradGradGradGradGradGradGradGrad

 ---------------------------------------------------------------------------------------------------
                            Z-MATRIX (ANGSTROMS AND DEGREES)
   CD    Cent   Atom    N1       Length/X        N2       Alpha/Y        N3        Beta/Z          J
 ---------------------------------------------------------------------------------------------------
      1      1  C 
      2      2  C        1   1.300000(     1)
      3      3  C        2   1.300000(     2)      1  120.000(    22)
      4      4  C        3   1.300000(     3)      2  120.000(    23)      1    0.000(    42)      0
      5      5  C        4   1.300000(     4)      3  120.000(    24)      2    0.000(    43)      0
      6      6  C        5   1.300000(     5)      4  120.000(    25)      3    0.000(    44)      0
      7      7  F        1   1.400000(     6)      2  120.000(    26)      3  180.000(    45)      0
      8      8  H        2   1.000000(     7)      3  120.000(    27)      4  180.000(    46)      0
      9      9  H        3   1.000000(     8)      4  120.000(    28)      5  180.000(    47)      0
     10     10  H        4   1.000000(     9)      5  120.000(    29)      6  180.000(    48)      0
     11     11  H        5   1.000000(    10)      6  120.000(    30)      1  180.000(    49)      0
     12     12  H        6   1.000000(    11)      1  120.000(    31)      2  180.000(    50)      0
     13     13  O        7   2.800000(    12)      1  179.900(    32)      3  180.000(    51)      0
     14     14  C       13   1.200000(    13)      1  179.900(    33)      2  180.000(    52)      0
     15     15  H       14   1.000000(    14)      1  120.000(    34)      2   90.000(    53)      0
     16     16  H       14   1.000000(    15)      1  120.000(    35)      2  -90.000(    54)      0
     17     17  H        7   2.300000(    16)      1  100.000(    36)      2   90.000(    55)      0
     18     18  Cl      17   0.900000(    17)      7  160.000(    37)      1    0.000(    56)      0
     19     19  H        7   2.300000(    18)      1  100.000(    38)      2  -30.000(    57)      0
     20     20  Cl      19   0.900000(    19)      7  160.000(    39)      1    0.000(    58)      0
     21     21  H        7   2.300000(    20)      1  100.000(    40)      2 -150.000(    59)      0
     22     22  Cl      21   0.900000(    21)      7  160.000(    41)      1    0.000(    60)      0
 ---------------------------------------------------------------------------------------------------
                         Z-Matrix orientation:                         
 ---------------------------------------------------------------------
 Center     Atomic      Atomic             Coordinates (Angstroms)
 Number     Number       Type             X           Y           Z
 ---------------------------------------------------------------------
      1          6           0        0.000000    0.000000    0.000000
      2          6           0        0.000000    0.000000    1.300000
      3          6           0        1.125833    0.000000    1.950000
      4          6           0        2.251666    0.000000    1.300000
      5          6           0        2.251666    0.000000   -0.000000
      6          6           0        1.125833    0.000000   -0.650000
      7          9           0       -1.212436   -0.000000   -0.700000
      8          1           0       -0.866025   -0.000000    1.800000
      9          1           0        1.125833   -0.000000    2.950000
     10          1           0        3.117691   -0.000000    1.800000
     11          1           0        3.117691   -0.000000   -0.500000
     12          1           0        1.125833   -0.000000   -1.650000
     13          8           0       -3.634860   -0.000000   -2.104230
     14          6           0       -4.672340   -0.000000   -2.707251
     15          1           0       -5.104965    0.866025   -2.957922
     16          1           0       -5.104965   -0.866025   -2.957922
     17          1           0       -1.558318    2.265058   -0.899695
     18         17           0       -1.422973    3.151385   -0.821554
     19          1           0       -2.539117   -1.132529    0.799098
     20         17           0       -2.787562   -1.575692    1.541985
     21          1           0       -0.577519   -1.132529   -2.598489
     22         17           0       -0.058383   -1.575692   -3.185092
 ---------------------------------------------------------------------
                    Distance matrix (angstroms):
                    1          2          3          4          5
     1  C    0.000000
     2  C    1.300000   0.000000
     3  C    2.251666   1.300000   0.000000
     4  C    2.600000   2.251666   1.300000   0.000000
     5  C    2.251666   2.600000   2.251666   1.300000   0.000000
     6  C    1.300000   2.251666   2.600000   2.251666   1.300000
     7  F    1.400000   2.338803   3.534119   4.000000   3.534119
     8  H    1.997498   1.000000   1.997498   3.157531   3.600000
     9  H    3.157531   1.997498   1.000000   1.997498   3.157531
    10  H    3.600000   3.157531   1.997498   1.000000   1.997498
    11  H    3.157531   3.600000   3.157531   1.997498   1.000000
    12  H    1.997498   3.157531   3.600000   3.157531   1.997498
    13  O    4.199999   4.980059   6.253077   6.799997   6.251317
    14  C    5.399997   6.155390   7.436988   7.999995   7.434452
    15  H    5.963218   6.703772   7.978755   8.543999   7.976172
    16  H    5.963218   6.703772   7.978755   8.543999   7.976172
    17  H    2.892800   3.521009   4.522822   4.948245   4.522822
    18  Cl   3.554016   4.056731   4.910107   5.285375   4.910107
    19  H    2.892800   2.825003   4.004879   4.948245   4.987262
    20  Cl   3.554016   3.211210   4.238390   5.285375   5.500395
    21  H    2.892800   4.100532   4.987262   4.948245   4.004879
    22  Cl   3.554016   4.754184   5.500395   5.285375   4.238390
                    6          7          8          9         10
     6  C    0.000000
     7  F    2.338803   0.000000
     8  H    3.157531   2.523886   0.000000
     9  H    3.600000   4.334743   2.300000   0.000000
    10  H    3.157531   5.000000   3.983717   2.300000   0.000000
    11  H    1.997498   4.334743   4.600000   3.983717   2.300000
    12  H    1.000000   2.523886   3.983717   4.600000   3.983717
    13  O    4.977849   2.800000   4.786382   6.943301   7.799997
    14  C    6.152324   3.999999   5.899436   8.100821   8.999995
    15  H    6.700697   4.582575   6.430896   8.629970   9.539387
    16  H    6.700697   4.582575   6.430896   8.629970   9.539387
    17  H    3.521009   2.300000   3.591394   5.211076   5.855246
    18  Cl   4.056731   3.160748   4.136902   5.536448   6.117303
    19  H    4.100532   2.300000   2.254698   4.397824   5.855246
    20  Cl   4.754184   3.160748   2.498336   4.447469   6.117303
    21  H    2.825003   2.300000   4.551105   5.913523   5.855246
    22  Cl   3.211210   3.160748   5.290202   6.443953   6.117303
                   11         12         13         14         15
    11  H    0.000000
    12  H    2.300000   0.000000
    13  O    6.940497   4.782313   0.000000
    14  C    8.096700   5.893776   1.200000   0.000000
    15  H    8.625744   6.425224   1.907878   1.000000   0.000000
    16  H    8.625744   6.425224   1.907878   1.000000   1.732051
    17  H    5.211076   3.591394   3.300517   4.253807   4.332700
    18  Cl   5.536448   4.136902   4.058193   4.903618   4.831563
    19  H    5.913523   4.551105   3.303421   4.257669   4.969204
    20  Cl   6.443953   5.290202   4.061478   4.908278   5.619742
    21  H    4.397824   2.254698   3.297612   4.249942   4.961973
    22  Cl   4.447469   2.498336   4.054905   4.898953   5.610845
                   16         17         18         19         20
    16  H    0.000000
    17  H    5.159329   0.000000
    18  Cl   5.853266   0.900000   0.000000
    19  H    4.557389   3.923195   4.714256   0.000000
    20  Cl   5.111080   4.714256   5.458359   0.900000   0.000000
    21  H    4.549503   3.923195   4.714256   3.923195   4.714256
    22  Cl   5.101296   4.714256   5.458359   4.714256   5.458359
                   21         22
    21  H    0.000000
    22  Cl   0.900000   0.000000
 Stoichiometry    C7H10Cl3FO
 Framework group  C1[X(C7H10Cl3FO)]
 Deg. of freedom    60
 Full point group                 C1      NOp   1
 Largest Abelian subgroup         C1      NOp   1
 Largest concise Abelian subgroup C1      NOp   1
                         Standard orientation:                         
 ---------------------------------------------------------------------
 Center     Atomic      Atomic             Coordinates (Angstroms)
 Number     Number       Type             X           Y           Z
 ---------------------------------------------------------------------
      1          6           0       -1.033304   -0.001031    0.000000
      2          6           0       -1.685405    1.123586    0.000000
      3          6           0       -2.985402    1.121160    0.000000
      4          6           0       -3.633300   -0.005884    0.000000
      5          6           0       -2.981200   -1.130502    0.000000
      6          6           0       -1.681202   -1.128076    0.000000
      7          9           0        0.366693    0.001582    0.000000
      8          1           0       -1.187022    1.990544    0.000000
      9          1           0       -3.487018    1.986251    0.000000
     10          1           0       -4.633298   -0.007751    0.000000
     11          1           0       -3.479582   -1.997459    0.000000
     12          1           0       -1.179586   -1.993166    0.000000
     13          8           0        3.166693    0.001921    0.000000
     14          6           0        4.366692    0.000670    0.000000
     15          1           0        4.866692    0.000828    0.866025
     16          1           0        4.866692    0.000828   -0.866025
     17          1           0        0.766083    0.002327    2.265058
     18         17           0        0.609800    0.002035    3.151385
     19          1           0        0.762422    1.963921   -1.132529
     20         17           0        0.604706    2.731210   -1.575692
     21          1           0        0.769745   -1.959267   -1.132529
     22         17           0        0.614894   -2.727139   -1.575692
 ---------------------------------------------------------------------
 Rotational constants (GHZ):           0.4449902           0.3342099           0.3183525
 Standard basis: 6-311++G(d,p) (5D, 7F)
 There are   370 symmetry adapted cartesian basis functions of A   symmetry.
 There are   358 symmetry adapted basis functions of A   symmetry.
   358 basis functions,   573 primitive gaussians,   370 cartesian basis functions
    60 alpha electrons       60 beta electrons
       nuclear repulsion energy       980.5257082673 Hartrees.
 NAtoms=   22 NActive=   22 NUniq=   22 SFac= 1.00D+00 NAtFMM=   60 NAOKFM=F Big=F
 Integral buffers will be    131072 words long.
 Raffenetti 2 integral format.
 Two-electron integral symmetry is turned on.
 Force inversion solution in PCM.
 ------------------------------------------------------------------------------
 Polarizable Continuum Model (PCM)
 =================================
 Model                : PCM.
 Atomic radii         : UFF (Universal Force Field).
 Polarization charges : Total charges.
 Charge compensation  : None.
 Solution method      : Matrix inversion.
 Cavity type          : Scaled VdW (van der Waals Surface) (Alpha=1.100).
 Cavity algorithm     : GePol (No added spheres)
                        Default sphere list used, NSphG=   22.
                        Lebedev-Laikov grids with approx.  5.0 points / Ang**2.
                        Smoothing algorithm: York/Karplus (Gamma=1.0000).
                        Polarization charges: spherical gaussians, with
                                              point-specific exponents (IZeta= 3).
                        Self-potential: point-specific (ISelfS= 7).
                        Self-field    : sphere-specific E.n sum rule (ISelfD= 2).
 1st derivatives      : Analytical E(r).r(x)/FMM algorithm (CHGder, D1EAlg=3).
                        Cavity 1st derivative terms included.
 2nd derivatives      : Analytical E(r).r(xy)/FMM algorithm (CHGder, D2EAlg=3).
                        Cavity 2nd derivative terms included.
 Solvent              : Chloroform, Eps=   4.711300 Eps(inf)=   2.090627
 ------------------------------------------------------------------------------
 One-electron integrals computed using PRISM.
 NBasis=   358 RedAO= T EigKep=  2.82D-06  NBF=   358
 NBsUse=   357 1.00D-06 EigRej=  3.59D-07 NBFU=   357
 ExpMin= 3.60D-02 ExpMax= 1.06D+05 ExpMxC= 3.62D+03 IAcc=3 IRadAn=         5 AccDes= 0.00D+00
 Harris functional with IExCor= 1009 and IRadAn=       5 diagonalized for initial guess.
 HarFok:  IExCor= 1009 AccDes= 0.00D+00 IRadAn=         5 IDoV= 1 UseB2=F ITyADJ=14
 ICtDFT=  3500011 ScaDFX=  1.000000  1.000000  1.000000  1.000000
 FoFCou: FMM=F IPFlag=           0 FMFlag=      100000 FMFlg1=           0
         NFxFlg=           0 DoJE=T BraDBF=F KetDBF=T FulRan=T
         wScrn=  0.000000 ICntrl=       500 IOpCl=  0 I1Cent=   200000004 NGrid=           0
         NMat0=    1 NMatS0=      1 NMatT0=    0 NMatD0=    1 NMtDS0=    0 NMtDT0=    0
 Petite list used in FoFCou.
 Requested convergence on RMS density matrix=1.00D-08 within 128 cycles.
 Requested convergence on MAX density matrix=1.00D-06.
 Requested convergence on             energy=1.00D-06.
 No special actions if energy rises.
 Inv3:  Mode=1 IEnd=    14520000.
 Iteration    1 A*A^-1 deviation from unit magnitude is 6.44D-15 for   2194.
 Iteration    1 A*A^-1 deviation from orthogonality  is 1.80D-15 for   1346   1234.
 Iteration    1 A^-1*A deviation from unit magnitude is 6.55D-15 for   2194.
 Iteration    1 A^-1*A deviation from orthogonality  is 1.42D-15 for   2192   2047.
 Error on total polarization charges =  0.01500
 SCF Done:  E(RM062X) =  -1827.66350435     A.U. after   14 cycles
            NFock= 14  Conv=0.64D-08     -V/T= 1.9989
 DoSCS=F DFT=T ScalE2(SS,OS)=  1.000000  1.000000
 Range of M.O.s used for correlation:     1   357
 NBasis=   358 NAE=    60 NBE=    60 NFC=     0 NFV=     0
 NROrb=    357 NOA=    60 NOB=    60 NVA=   297 NVB=   297

 **** Warning!!: The largest alpha MO coefficient is  0.16036914D+03

 Symmetrizing basis deriv contribution to polar:
 IMax=3 JMax=2 DiffMx= 0.00D+00
 G2DrvN: will do    23 centers at a time, making    1 passes.
 Calling FoFCou, ICntrl=  3107 FMM=F I1Cent=   0 AccDes= 0.00D+00.
 NEqPCM:  Using equilibrium solvation (IEInf=0, Eps=   4.7113, EpsInf=   2.0906)
 G2PCM: DoFxE=T DoFxN=T DoGrad=T DoDP/DQ/DG/TGxP=FFFF NFrqRd=   0 IEInf=0 SqF1=F DoCFld=F IF1Alg=4.
 End of G2Drv F.D. properties file   721 does not exist.
 End of G2Drv F.D. properties file   722 does not exist.
 End of G2Drv F.D. properties file   788 does not exist.
          IDoAtm=1111111111111111111111
 NEqPCM:  Using equilibrium solvation (IEInf=0, Eps=   4.7113, EpsInf=   2.0906)
          Differentiating once with respect to electric field.
                with respect to dipole field.
          Differentiating once with respect to nuclear coordinates.
 CalDSu exits because no D1Ps are significant.
          There are    69 degrees of freedom in the 1st order CPHF.  IDoFFX=6 NUNeed=     3.
     66 vectors produced by pass  0 Test12= 2.58D-14 1.45D-09 XBig12= 6.62D+01 3.75D+00.
 AX will form    66 AO Fock derivatives at one time.
     66 vectors produced by pass  1 Test12= 2.58D-14 1.45D-09 XBig12= 8.79D+00 5.32D-01.
     66 vectors produced by pass  2 Test12= 2.58D-14 1.45D-09 XBig12= 1.10D-01 7.71D-02.
     66 vectors produced by pass  3 Test12= 2.58D-14 1.45D-09 XBig12= 8.56D-04 7.13D-03.
     66 vectors produced by pass  4 Test12= 2.58D-14 1.45D-09 XBig12= 4.24D-06 2.54D-04.
     66 vectors produced by pass  5 Test12= 2.58D-14 1.45D-09 XBig12= 2.16D-08 1.90D-05.
     50 vectors produced by pass  6 Test12= 2.58D-14 1.45D-09 XBig12= 7.77D-11 8.54D-07.
     10 vectors produced by pass  7 Test12= 2.58D-14 1.45D-09 XBig12= 2.81D-13 6.70D-08.
      3 vectors produced by pass  8 Test12= 2.58D-14 1.45D-09 XBig12= 1.06D-15 3.69D-09.
 InvSVY:  IOpt=1 It=  1 EMax= 7.11D-15
 Solved reduced A of dimension   459 with    69 vectors.
 Isotropic polarizability for W=    0.000000      121.65 Bohr**3.
 End of Minotr F.D. properties file   721 does not exist.
 End of Minotr F.D. properties file   722 does not exist.
 End of Minotr F.D. properties file   788 does not exist.

 **********************************************************************

            Population analysis using the SCF Density.

 **********************************************************************

 Orbital symmetries:
       Occupied  (A) (A) (A) (A) (A) (A) (A) (A) (A) (A) (A) (A)
                 (A) (A) (A) (A) (A) (A) (A) (A) (A) (A) (A) (A)
                 (A) (A) (A) (A) (A) (A) (A) (A) (A) (A) (A) (A)
                 (A) (A) (A) (A) (A) (A) (A) (A) (A) (A) (A) (A)
                 (A) (A) (A) (A) (A) (A) (A) (A) (A) (A) (A) (A)
       Virtual   (A) (A) (A) (A) (A) (A) (A) (A) (A) (A) (A) (A)
                 (A) (A) (A) (A) (A) (A) (A) (A) (A) (A) (A) (A)
                 (A) (A) (A) (A) (A) (A) (A) (A) (A) (A) (A) (A)
                 (A) (A) (A) (A) (A) (A) (A) (A) (A) (A) (A) (A)
                 (A) (A) (A) (A) (A) (A) (A) (A) (A) (A) (A) (A)
                 (A) (A) (A) (A) (A) (A) (A) (A) (A) (A) (A) (A)
                 (A) (A) (A) (A) (A) (A) (A) (A) (A) (A) (A) (A)
                 (A) (A) (A) (A) (A) (A) (A) (A) (A) (A) (A) (A)
                 (A) (A) (A) (A) (A) (A) (A) (A) (A) (A) (A) (A)
                 (A) (A) (A) (A) (A) (A) (A) (A) (A) (A) (A) (A)
                 (A) (A) (A) (A) (A) (A) (A) (A) (A) (A) (A) (A)
                 (A) (A) (A) (A) (A) (A) (A) (A) (A) (A) (A) (A)
                 (A) (A) (A) (A) (A) (A) (A) (A) (A) (A) (A) (A)
                 (A) (A) (A) (A) (A) (A) (A) (A) (A) (A) (A) (A)
                 (A) (A) (A) (A) (A) (A) (A) (A) (A) (A) (A) (A)
                 (A) (A) (A) (A) (A) (A) (A) (A) (A) (A) (A) (A)
                 (A) (A) (A) (A) (A) (A) (A) (A) (A) (A) (A) (A)
                 (A) (A) (A) (A) (A) (A) (A) (A) (A) (A) (A) (A)
                 (A) (A) (A) (A) (A) (A) (A) (A) (A) (A) (A) (A)
                 (A) (A) (A) (A) (A) (A) (A) (A) (A) (A) (A) (A)
                 (A) (A) (A) (A) (A) (A) (A) (A) (A) (A) (A) (A)
                 (A) (A) (A) (A) (A) (A) (A) (A) (A) (A) (A) (A)
                 (A) (A) (A) (A) (A) (A) (A) (A) (A) (A) (A) (A)
                 (A) (A) (A) (A) (A) (A) (A) (A) (A) (A) (A) (A)
                 (A) (A) (A) (A) (A) (A) (A) (A) (A)
 The electronic state is 1-A.
 Alpha  occ. eigenvalues -- -102.64915-102.64914-102.64742 -25.26188 -19.64020
 Alpha  occ. eigenvalues --  -10.61747 -10.61636 -10.52553 -10.52550 -10.52315
 Alpha  occ. eigenvalues --  -10.52303 -10.51606  -9.81440  -9.81439  -9.81232
 Alpha  occ. eigenvalues --   -7.54158  -7.54158  -7.53952  -7.52985  -7.52985
 Alpha  occ. eigenvalues --   -7.52979  -7.52979  -7.52779  -7.52779  -1.36810
 Alpha  occ. eigenvalues --   -1.19195  -1.04061  -1.04053  -1.03642  -1.03324
 Alpha  occ. eigenvalues --   -0.89541  -0.88722  -0.75180  -0.74172  -0.72672
 Alpha  occ. eigenvalues --   -0.66872  -0.60652  -0.60244  -0.59732  -0.59472
 Alpha  occ. eigenvalues --   -0.58374  -0.58246  -0.56683  -0.54293  -0.53701
 Alpha  occ. eigenvalues --   -0.52962  -0.50781  -0.48091  -0.47604  -0.44927
 Alpha  occ. eigenvalues --   -0.43182  -0.40996  -0.40987  -0.40699  -0.40684
 Alpha  occ. eigenvalues --   -0.40571  -0.39974  -0.35145  -0.33905  -0.33066
 Alpha virt. eigenvalues --   -0.00733  -0.00205   0.00733   0.01331   0.01694
 Alpha virt. eigenvalues --    0.02286   0.02433   0.03173   0.03358   0.03915
 Alpha virt. eigenvalues --    0.04308   0.05137   0.05707   0.06672   0.06758
 Alpha virt. eigenvalues --    0.06936   0.07382   0.08967   0.09565   0.09983
 Alpha virt. eigenvalues --    0.10071   0.10541   0.10874   0.11415   0.11836
 Alpha virt. eigenvalues --    0.12102   0.12491   0.13496   0.13831   0.13986
 Alpha virt. eigenvalues --    0.14096   0.14211   0.14876   0.15047   0.16071
 Alpha virt. eigenvalues --    0.16433   0.16740   0.16885   0.17154   0.17435
 Alpha virt. eigenvalues --    0.17757   0.18416   0.18832   0.20464   0.20671
 Alpha virt. eigenvalues --    0.21093   0.21260   0.21662   0.21714   0.22693
 Alpha virt. eigenvalues --    0.23627   0.23860   0.24331   0.24693   0.25266
 Alpha virt. eigenvalues --    0.26543   0.27554   0.28915   0.29538   0.30744
 Alpha virt. eigenvalues --    0.31208   0.32031   0.33032   0.33291   0.34356
 Alpha virt. eigenvalues --    0.35285   0.35726   0.36437   0.38425   0.39655
 Alpha virt. eigenvalues --    0.39679   0.41052   0.43064   0.43644   0.44010
 Alpha virt. eigenvalues --    0.44759   0.45622   0.48631   0.50163   0.50591
 Alpha virt. eigenvalues --    0.51435   0.51612   0.51866   0.52995   0.53088
 Alpha virt. eigenvalues --    0.54371   0.55203   0.56901   0.57407   0.58559
 Alpha virt. eigenvalues --    0.59666   0.59836   0.61658   0.61978   0.62389
 Alpha virt. eigenvalues --    0.63535   0.63733   0.64783   0.65326   0.66855
 Alpha virt. eigenvalues --    0.67082   0.67976   0.68312   0.69998   0.70562
 Alpha virt. eigenvalues --    0.72517   0.72810   0.76033   0.77128   0.78228
 Alpha virt. eigenvalues --    0.78690   0.80470   0.81353   0.81703   0.81929
 Alpha virt. eigenvalues --    0.83768   0.85239   0.85719   0.86023   0.88552
 Alpha virt. eigenvalues --    0.89209   0.90436   0.90832   0.93715   0.94202
 Alpha virt. eigenvalues --    0.96991   0.97137   0.98247   0.98323   1.00302
 Alpha virt. eigenvalues --    1.00677   1.01498   1.03095   1.05919   1.06134
 Alpha virt. eigenvalues --    1.07547   1.08286   1.08469   1.11559   1.13269
 Alpha virt. eigenvalues --    1.16003   1.16175   1.17579   1.18038   1.18431
 Alpha virt. eigenvalues --    1.22277   1.22908   1.24788   1.29054   1.31414
 Alpha virt. eigenvalues --    1.33161   1.34113   1.36289   1.38777   1.39164
 Alpha virt. eigenvalues --    1.43752   1.52045   1.53599   1.53807   1.56417
 Alpha virt. eigenvalues --    1.58417   1.61898   1.62429   1.65994   1.66381
 Alpha virt. eigenvalues --    1.67546   1.68327   1.69626   1.71793   1.73195
 Alpha virt. eigenvalues --    1.74710   1.76937   1.78042   1.80838   1.81417
 Alpha virt. eigenvalues --    1.82325   1.84993   1.85479   1.86257   1.87186
 Alpha virt. eigenvalues --    1.87267   1.89048   1.90999   1.93512   1.94571
 Alpha virt. eigenvalues --    1.97168   1.99854   2.04480   2.04724   2.05869
 Alpha virt. eigenvalues --    2.06028   2.08114   2.13225   2.16190   2.16840
 Alpha virt. eigenvalues --    2.17546   2.19668   2.20432   2.21094   2.21463
 Alpha virt. eigenvalues --    2.23756   2.25453   2.29584   2.30496   2.30684
 Alpha virt. eigenvalues --    2.32940   2.34129   2.35928   2.36279   2.37676
 Alpha virt. eigenvalues --    2.38207   2.43650   2.44322   2.47287   2.49012
 Alpha virt. eigenvalues --    2.50855   2.52111   2.58597   2.64851   2.67024
 Alpha virt. eigenvalues --    2.71129   2.71673   2.75182   2.77476   2.78795
 Alpha virt. eigenvalues --    2.78849   2.79113   2.81388   2.86442   2.86474
 Alpha virt. eigenvalues --    2.89099   2.90511   2.90599   2.96572   2.98635
 Alpha virt. eigenvalues --    3.00772   3.03456   3.08824   3.12160   3.24732
 Alpha virt. eigenvalues --    3.27396   3.35368   3.40059   3.42879   3.45643
 Alpha virt. eigenvalues --    3.45710   3.50274   3.55350   3.59784   3.62096
 Alpha virt. eigenvalues --    3.64894   3.75791   3.75865   3.86886   3.89989
 Alpha virt. eigenvalues --    3.98528   4.00370   4.04038   4.09827   4.14221
 Alpha virt. eigenvalues --    4.17441   4.19269   4.26319   4.26517   4.36628
 Alpha virt. eigenvalues --    4.95242   4.95956   5.12215   5.23718   5.83776
 Alpha virt. eigenvalues --    6.54713   6.65166   6.91287  10.31359  10.31521
 Alpha virt. eigenvalues --   10.40655  23.73933  24.17890  24.26967  24.31716
 Alpha virt. eigenvalues --   24.54155  24.57354  24.72941  25.94352  25.94868
 Alpha virt. eigenvalues --   25.95079  26.03170  26.11405  26.12954  27.13842
 Alpha virt. eigenvalues --   27.13877  27.17490  50.07311  66.97124 216.52219
 Alpha virt. eigenvalues --  216.52384 216.64872
          Condensed to atoms (all electrons):
               1          2          3          4          5          6
     1  C   15.605766  -2.251422  -2.799114   0.568140  -2.804715  -2.264200
     2  C   -2.251422  16.466171   1.783678  -0.783381  -0.552927  -8.572604
     3  C   -2.799114   1.783678   8.087170   0.054794  -0.823056  -0.552072
     4  C    0.568140  -0.783381   0.054794   7.015090   0.057078  -0.780862
     5  C   -2.804715  -0.552927  -0.823056   0.057078   8.089869   1.783758
     6  C   -2.264200  -8.572604  -0.552072  -0.780862   1.783758  16.473453
     7  F    0.506553  -0.271630  -0.010407  -0.018165  -0.010705  -0.272108
     8  H   -0.306719  -0.325250  -0.153493  -0.125827   0.423557   0.321824
     9  H    0.031358   0.028199   0.479952  -0.097913  -0.093537   0.031775
    10  H    0.046709  -0.016162  -0.074110   0.493407  -0.074102  -0.015942
    11  H    0.032057   0.031913  -0.093690  -0.097760   0.479358   0.028040
    12  H   -0.310216   0.320370   0.423913  -0.126174  -0.150367  -0.323822
    13  O    0.043186  -0.016640  -0.000626  -0.002122  -0.000623  -0.016666
    14  C   -0.006492   0.001852   0.001550  -0.000359   0.001563   0.001933
    15  H    0.005875  -0.001957  -0.000925   0.000304  -0.000932  -0.002001
    16  H   -0.004283   0.001403   0.000498   0.000017   0.000504   0.001440
    17  H   -0.005301  -0.016991  -0.023631   0.045314  -0.023581  -0.017962
    18  Cl  -0.018319   0.027485   0.022589  -0.046593   0.022569   0.028280
    19  H   -0.031537   0.439170   0.017332   0.042022  -0.093179  -0.198860
    20  Cl   0.080573  -0.403616  -0.006711  -0.025477   0.049646   0.050974
    21  H   -0.029360  -0.197299  -0.093058   0.042063   0.016014   0.436833
    22  Cl   0.078213   0.049791   0.049538  -0.025344  -0.005436  -0.401379
               7          8          9         10         11         12
     1  C    0.506553  -0.306719   0.031358   0.046709   0.032057  -0.310216
     2  C   -0.271630  -0.325250   0.028199  -0.016162   0.031913   0.320370
     3  C   -0.010407  -0.153493   0.479952  -0.074110  -0.093690   0.423913
     4  C   -0.018165  -0.125827  -0.097913   0.493407  -0.097760  -0.126174
     5  C   -0.010705   0.423557  -0.093537  -0.074102   0.479358  -0.150367
     6  C   -0.272108   0.321824   0.031775  -0.015942   0.028040  -0.323822
     7  F    9.268347   0.018796  -0.002395   0.001083  -0.002383   0.018690
     8  H    0.018796   1.281576  -0.102136  -0.006828   0.010620  -0.029616
     9  H   -0.002395  -0.102136   0.505483  -0.012326  -0.002551   0.010644
    10  H    0.001083  -0.006828  -0.012326   0.497561  -0.012332  -0.006818
    11  H   -0.002383   0.010620  -0.002551  -0.012332   0.505515  -0.102293
    12  H    0.018690  -0.029616   0.010644  -0.006818  -0.102293   1.282783
    13  O    0.007544   0.001358   0.000063  -0.000012   0.000065   0.001325
    14  C    0.002167   0.003632  -0.000091   0.000012  -0.000092   0.003641
    15  H   -0.000307  -0.001190   0.000008   0.000004   0.000008  -0.001203
    16  H   -0.000271   0.000143   0.000001  -0.000003   0.000000   0.000159
    17  H    0.001533  -0.001918  -0.002020  -0.000148  -0.001981  -0.002302
    18  Cl   0.001257   0.004051   0.002113   0.000145   0.002093   0.004282
    19  H   -0.015925  -0.295472   0.015767   0.001142  -0.000803   0.003573
    20  Cl   0.014252   0.320189  -0.013937  -0.000851   0.000387   0.000513
    21  H   -0.015894   0.003485  -0.000799   0.001141   0.015817  -0.295989
    22  Cl   0.014225   0.000551   0.000385  -0.000851  -0.013948   0.320338
              13         14         15         16         17         18
     1  C    0.043186  -0.006492   0.005875  -0.004283  -0.005301  -0.018319
     2  C   -0.016640   0.001852  -0.001957   0.001403  -0.016991   0.027485
     3  C   -0.000626   0.001550  -0.000925   0.000498  -0.023631   0.022589
     4  C   -0.002122  -0.000359   0.000304   0.000017   0.045314  -0.046593
     5  C   -0.000623   0.001563  -0.000932   0.000504  -0.023581   0.022569
     6  C   -0.016666   0.001933  -0.002001   0.001440  -0.017962   0.028280
     7  F    0.007544   0.002167  -0.000307  -0.000271   0.001533   0.001257
     8  H    0.001358   0.003632  -0.001190   0.000143  -0.001918   0.004051
     9  H    0.000063  -0.000091   0.000008   0.000001  -0.002020   0.002113
    10  H   -0.000012   0.000012   0.000004  -0.000003  -0.000148   0.000145
    11  H    0.000065  -0.000092   0.000008   0.000000  -0.001981   0.002093
    12  H    0.001325   0.003641  -0.001203   0.000159  -0.002302   0.004282
    13  O    8.209050   0.257594  -0.088602  -0.092339   0.008714  -0.005669
    14  C    0.257594   4.834754   0.409225   0.412729  -0.006121  -0.001448
    15  H   -0.088602   0.409225   0.688759  -0.132930   0.001121   0.002868
    16  H   -0.092339   0.412729  -0.132930   0.689870   0.000546  -0.000696
    17  H    0.008714  -0.006121   0.001121   0.000546   0.821610   0.069768
    18  Cl  -0.005669  -0.001448   0.002868  -0.000696   0.069768  16.999397
    19  H    0.008497  -0.006680   0.002199  -0.001818   0.015027  -0.003527
    20  Cl  -0.005494   0.002463  -0.001057   0.001326  -0.005736   0.000479
    21  H    0.008479  -0.006597   0.002236  -0.001870   0.015071  -0.003536
    22  Cl  -0.005504   0.002462  -0.001076   0.001349  -0.005748   0.000477
              19         20         21         22
     1  C   -0.031537   0.080573  -0.029360   0.078213
     2  C    0.439170  -0.403616  -0.197299   0.049791
     3  C    0.017332  -0.006711  -0.093058   0.049538
     4  C    0.042022  -0.025477   0.042063  -0.025344
     5  C   -0.093179   0.049646   0.016014  -0.005436
     6  C   -0.198860   0.050974   0.436833  -0.401379
     7  F   -0.015925   0.014252  -0.015894   0.014225
     8  H   -0.295472   0.320189   0.003485   0.000551
     9  H    0.015767  -0.013937  -0.000799   0.000385
    10  H    0.001142  -0.000851   0.001141  -0.000851
    11  H   -0.000803   0.000387   0.015817  -0.013948
    12  H    0.003573   0.000513  -0.295989   0.320338
    13  O    0.008497  -0.005494   0.008479  -0.005504
    14  C   -0.006680   0.002463  -0.006597   0.002462
    15  H    0.002199  -0.001057   0.002236  -0.001076
    16  H   -0.001818   0.001326  -0.001870   0.001349
    17  H    0.015027  -0.005736   0.015071  -0.005748
    18  Cl  -0.003527   0.000479  -0.003536   0.000477
    19  H    1.074872  -0.101625   0.003155  -0.002409
    20  Cl  -0.101625  17.143338  -0.002390   0.002561
    21  H    0.003155  -0.002390   1.075574  -0.102143
    22  Cl  -0.002409   0.002561  -0.102143  17.143779
 Mulliken charges:
               1
     1  C   -0.166752
     2  C    0.259845
     3  C   -0.290119
     4  C   -0.188253
     5  C   -0.290757
     6  C    0.260167
     7  F   -0.234257
     8  H   -0.041333
     9  H    0.221958
    10  H    0.179278
    11  H    0.221961
    12  H   -0.041433
    13  O   -0.311577
    14  C    0.092303
    15  H    0.119573
    16  H    0.124223
    17  H    0.134735
    18  Cl  -0.108067
    19  H    0.129078
    20  Cl  -0.099809
    21  H    0.129066
    22  Cl  -0.099831
 Sum of Mulliken charges =  -0.00000
 Mulliken charges with hydrogens summed into heavy atoms:
               1
     1  C   -0.166752
     2  C    0.218512
     3  C   -0.068161
     4  C   -0.008975
     5  C   -0.068796
     6  C    0.218734
     7  F   -0.234257
    13  O   -0.311577
    14  C    0.336099
    18  Cl   0.026669
    20  Cl   0.029269
    22  Cl   0.029235
 APT charges:
               1
     1  C    0.705497
     2  C   -0.173220
     3  C   -0.001608
     4  C   -0.070001
     5  C   -0.001574
     6  C   -0.173282
     7  F   -0.698422
     8  H    0.111404
     9  H    0.062503
    10  H    0.055993
    11  H    0.062502
    12  H    0.111388
    13  O   -0.693504
    14  C    0.682120
    15  H    0.001360
    16  H    0.000184
    17  H    0.251971
    18  Cl  -0.242689
    19  H    0.242861
    20  Cl  -0.238226
    21  H    0.242922
    22  Cl  -0.238180
 Sum of APT charges =  -0.00000
 APT charges with hydrogens summed into heavy atoms:
               1
     1  C    0.705497
     2  C   -0.061816
     3  C    0.060895
     4  C   -0.014008
     5  C    0.060928
     6  C   -0.061894
     7  F   -0.698422
    13  O   -0.693504
    14  C    0.683665
    18  Cl   0.009281
    20  Cl   0.004635
    22  Cl   0.004743
 Electronic spatial extent (au):  <R**2>=           4146.7823
 Charge=              0.0000 electrons
 Dipole moment (field-independent basis, Debye):
    X=              0.8688    Y=             -0.0064    Z=             -0.1024  Tot=              0.8749
 Quadrupole moment (field-independent basis, Debye-Ang):
   XX=            -59.8154   YY=            -92.4974   ZZ=           -100.6078
   XY=              0.0124   XZ=              0.0912   YZ=             -0.0003
 Traceless Quadrupole moment (field-independent basis, Debye-Ang):
   XX=             24.4914   YY=             -8.1905   ZZ=            -16.3009
   XY=              0.0124   XZ=              0.0912   YZ=             -0.0003
 Octapole moment (field-independent basis, Debye-Ang**2):
  XXX=            118.7820  YYY=             -0.0571  ZZZ=             -7.2976  XYY=             -7.9605
  XXY=              0.0175  XXZ=             -0.1375  XZZ=             13.8876  YZZ=              0.0112
  YYZ=              6.1450  XYZ=             -0.0120
 Hexadecapole moment (field-independent basis, Debye-Ang**3):
 XXXX=          -1752.4987 YYYY=          -1479.9417 ZZZZ=          -1303.3598 XXXY=              0.1547
 XXXZ=              0.2406 YYYX=              0.0396 YYYZ=              0.0641 ZZZX=             -8.6737
 ZZZY=             -0.0252 XXYY=           -650.7291 XXZZ=           -664.7691 YYZZ=           -472.9254
 XXYZ=             -0.0354 YYXZ=              9.3568 ZZXY=             -0.0513
 N-N= 9.805257082673D+02 E-N=-6.295923065997D+03  KE= 1.829757333649D+03
  Exact polarizability: 147.464   0.007 123.060  -1.093  -0.002  94.439
 Approx polarizability: 145.789  -0.005 128.035  -0.392  -0.001  96.554
 D2PCM: PCM CHGder 2nd derivatives, FixD1E=F FixD2E=F DoIter=F DoCFld=F I1PDM=0
 Calling FoFJK, ICntrl=    100127 FMM=F ISym2X=0 I1Cent= 0 IOpClX= 0 NMat=1 NMatS=1 NMatT=0.
 ***** Axes restored to original set *****
 -------------------------------------------------------------------
 Center     Atomic                   Forces (Hartrees/Bohr)
 Number     Number              X              Y              Z
 -------------------------------------------------------------------
      1        6          -0.082565580    0.000121040   -0.047666163
      2        6          -0.052821535    0.001890874    0.015088846
      3        6           0.002757966    0.000061221    0.037060803
      4        6           0.038994466   -0.000365732    0.022513187
      5        6           0.033479144    0.000061233   -0.016134661
      6        6          -0.013335114    0.001890383   -0.053291123
      7        9           0.020283359    0.000049620    0.011711675
      8        1          -0.061013414    0.002668093    0.036305578
      9        1          -0.001806703    0.000139244    0.073764977
     10        1           0.064290245   -0.000012425    0.037118640
     11        1           0.062978161    0.000139223   -0.038448471
     12        1           0.000933740    0.002667251   -0.070992105
     13        8           0.015901904   -0.000083435    0.009170421
     14        6           0.061916175   -0.000007053    0.036079925
     15        1          -0.039126798    0.071648608   -0.022753732
     16        1          -0.039127878   -0.071625805   -0.022754529
     17        1          -0.116746908   -0.759270394   -0.067410863
     18       17           0.116264029    0.758307611    0.067131104
     19        1           0.211573478    0.378732832   -0.636363205
     20       17          -0.218155122   -0.382873700    0.634777062
     21        1          -0.445376502    0.378728865    0.501353489
     22       17           0.440702885   -0.382867553   -0.506260856
 -------------------------------------------------------------------
 Cartesian Forces:  Max     0.759270394 RMS     0.234684289
 -----------------------------------------------------------------------------------------------
                       Internal Coordinate Forces (Hartree/Bohr or radian)
  Cent   Atom   N1       Length/X         N2         Alpha/Y        N3         Beta/Z          J
 -----------------------------------------------------------------------------------------------
      1  C 
      2  C        1   0.043608(     1)
      3  C        2   0.159483(     2)      1   0.183824(    22)
      4  C        3   0.221859(     3)      2   0.433881(    23)      1   0.015303(    42)     0
      5  C        4   0.178244(     4)      3   0.452261(    24)      2   0.020067(    43)     0
      6  C        5   0.072259(     5)      4   0.244882(    25)      3   0.009945(    44)     0
      7  F        1  -0.009363(     6)      2   0.000102(    26)      3   0.004756(    45)     0
      8  H        2   0.070992(     7)      3  -0.001767(    27)      4   0.004366(    46)     0
      9  H        3   0.073765(     8)      4   0.003414(    28)      5   0.000228(    47)     0
     10  H        4   0.074236(     9)      5   0.000001(    29)      6  -0.000020(    48)     0
     11  H        5   0.073765(    10)      6  -0.003417(    30)      1   0.000228(    49)     0
     12  H        6   0.070992(    11)      1   0.001765(    31)      2   0.004365(    50)     0
     13  O        7   0.000507(    12)      1  -0.000023(    32)      3   0.000001(    51)     0
     14  C       13   0.018864(    13)      1   0.000104(    33)      2  -0.000000(    52)     0
     15  H       14   0.084680(    14)      1   0.006375(    34)      2   0.000117(    53)     0
     16  H       14   0.084661(    15)      1   0.006399(    35)      2  -0.000118(    54)     0
     17  H        7  -0.000851(    16)      1   0.002206(    36)      2  -0.000005(    55)     0
     18  Cl      17   0.770100(    17)      7  -0.000910(    37)      1  -0.000003(    56)     0
     19  H        7   0.004802(    18)      1   0.034854(    38)      2  -0.014886(    57)     0
     20  Cl      19   0.772714(    19)      7   0.009878(    39)      1  -0.001264(    58)     0
     21  H        7   0.004798(    20)      1   0.034770(    40)      2   0.014898(    59)     0
     22  Cl      21   0.772702(    21)      7   0.009756(    41)      1   0.001268(    60)     0
 -----------------------------------------------------------------------------------------------
 Internal  Forces:  Max     0.772714300 RMS     0.201353391

 GradGradGradGradGradGradGradGradGradGradGradGradGradGradGradGradGradGrad
 Berny optimization.
 Search for a local minimum.
 Step number   1 out of a maximum of   50
 All quantities printed in internal units (Hartrees-Bohrs-Radians)
 Second derivative matrix not updated -- analytic derivatives used.
 The second derivative matrix:
                          d1        d2        d3        d4        d5
           d1           0.89906
           d2          -0.01675   1.02084
           d3          -0.36210   0.41447   1.58169
           d4          -0.16333   0.01128   0.40025   1.00928
           d5           0.04197  -0.19319  -0.37912  -0.00115   0.97043
           d6           0.05614   0.05738   0.02829  -0.02785  -0.05489
           d7           0.00050   0.00190  -0.00083   0.00223   0.00211
           d8          -0.00051   0.00426   0.00483  -0.00022  -0.00041
           d9          -0.00090  -0.00094   0.00424   0.00514   0.00086
           d10          0.00314   0.00222  -0.00072   0.00169   0.00163
           d11         -0.01803  -0.01541   0.00273   0.01720   0.01942
           d12          0.00053   0.00063   0.00036  -0.00016  -0.00042
           d13         -0.00008  -0.00011  -0.00008  -0.00001   0.00004
           d14          0.00006   0.00007   0.00004  -0.00002  -0.00004
           d15          0.00006   0.00007   0.00004  -0.00001  -0.00004
           d16         -0.00062  -0.00079  -0.00039   0.00023   0.00044
           d17          0.00007   0.00009   0.00004  -0.00004  -0.00005
           d18          0.00943   0.00941   0.00062  -0.00881  -0.00946
           d19          0.00561   0.00591   0.00076  -0.00485  -0.00531
                          d6        d7        d8        d9        d10
           d6           0.33157
           d7          -0.00666   0.57824
           d8           0.00094   0.00029   0.57445
           d9           0.00033   0.00010   0.00046   0.57405
           d10          0.00094   0.00008   0.00020   0.00045   0.57446
           d11         -0.00666  -0.00002   0.00008   0.00010   0.00029
           d12         -0.00110  -0.00002   0.00003   0.00002   0.00003
           d13          0.00059   0.00001  -0.00002  -0.00002  -0.00002
           d14         -0.00018  -0.00000   0.00000   0.00000   0.00000
           d15         -0.00018  -0.00000   0.00000   0.00000   0.00000
           d16          0.00225   0.00008  -0.00004  -0.00001  -0.00004
           d17         -0.00090   0.00002   0.00002   0.00002   0.00002
           d18          0.02389  -0.00545  -0.00002   0.00008  -0.00002
           d19          0.00845  -0.00283   0.00005   0.00009   0.00005
                          d11       d12       d13       d14       d15
           d11          0.57825
           d12         -0.00002   0.00352
           d13          0.00001   0.00069   0.95769
           d14         -0.00000   0.00007   0.03206   0.57450
           d15         -0.00000   0.00006   0.03203   0.00163   0.57454
           d16          0.00008  -0.00052  -0.00008  -0.00002  -0.00000
           d17          0.00002   0.00003  -0.00017   0.00003   0.00003
           d18         -0.00546  -0.00100  -0.00003  -0.00005  -0.00007
           d19         -0.00283  -0.00016  -0.00033   0.00005   0.00004
                          d16       d17       d18       d19
           d16          0.00420
           d17          0.00233   2.45727
           d18          0.00013  -0.00015   0.02556
           d19         -0.00014   0.00002   0.01288   4.93989
 ITU=  0
     Eigenvalues ---    0.00320   0.00445   0.02352   0.31872   0.57084
     Eigenvalues ---    0.57289   0.57352   0.57408   0.57473   0.57593
     Eigenvalues ---    0.57805   0.58297   0.77064   0.81405   0.96300
     Eigenvalues ---    1.14088   2.19077   2.45727   4.93998
 RFO step:  Lambda=-4.23355402D-01 EMin= 3.19975422D-03
 Linear search not attempted -- first point.
 Maximum step size (   0.300) exceeded in Quadratic search.
    -- Step size scaled by   0.716
 Variable       Old X    -DE/DX   Delta X   Delta X   Delta X     New X
                                 (Linear)    (Quad)   (Total)
    d1        2.45664   0.04361   0.00000   0.05188   0.05188   2.50852
    d2        2.45664   0.15948   0.00000   0.06727   0.06727   2.52391
    d3        2.45664   0.22186   0.00000   0.07186   0.07186   2.52851
    d4        2.45664   0.17824   0.00000   0.07363   0.07363   2.53027
    d5        2.45664   0.07226   0.00000   0.06354   0.06354   2.52018
    d6        2.64562  -0.00936   0.00000  -0.01358  -0.01358   2.63203
    d7        1.88973   0.07099   0.00000   0.05055   0.05055   1.94028
    d8        1.88973   0.07376   0.00000   0.05230   0.05230   1.94203
    d9        1.88973   0.07424   0.00000   0.05258   0.05258   1.94230
   d10        1.88973   0.07376   0.00000   0.05238   0.05238   1.94210
   d11        1.88973   0.07099   0.00000   0.05022   0.05022   1.93995
   d12        5.29123   0.00051   0.00000   0.00069   0.00069   5.29192
   d13        2.26767   0.01886   0.00000   0.00704   0.00704   2.27471
   d14        1.88973   0.08468   0.00000   0.06040   0.06040   1.95012
   d15        1.88973   0.08466   0.00000   0.06038   0.06038   1.95011
   d16        4.34637  -0.00085   0.00000  -0.00221  -0.00221   4.34416
   d17        1.70075   0.77010   0.00000   0.19135   0.19135   1.89210
   d18        4.34637   0.00480   0.00000   0.00691   0.00691   4.35328
   d19        1.70075   0.77271   0.00000   0.10317   0.10317   1.80393
         Item               Value     Threshold  Converged?
 Maximum Force            0.772714     0.000450     NO 
 RMS     Force            0.266060     0.000300     NO 
 Maximum Displacement     0.191348     0.001800     NO 
 RMS     Displacement     0.068825     0.001200     NO 
 Predicted change in Energy=-2.136293D-01
 GradGradGradGradGradGradGradGradGradGradGradGradGradGradGradGradGradGrad

 ---------------------------------------------------------------------------------------------------
                            Z-MATRIX (ANGSTROMS AND DEGREES)
   CD    Cent   Atom    N1       Length/X        N2       Alpha/Y        N3        Beta/Z          J
 ---------------------------------------------------------------------------------------------------
      1      1  C 
      2      2  C        1   1.327454(     1)
      3      3  C        2   1.335598(     2)      1  120.000(    22)
      4      4  C        3   1.338027(     3)      2  120.000(    23)      1    0.000(    42)      0
      5      5  C        4   1.338961(     4)      3  120.000(    24)      2    0.000(    43)      0
      6      6  C        5   1.333624(     5)      4  120.000(    25)      3    0.000(    44)      0
      7      7  F        1   1.392811(     6)      2  120.000(    26)      3  180.000(    45)      0
      8      8  H        2   1.026752(     7)      3  120.000(    27)      4  180.000(    46)      0
      9      9  H        3   1.027676(     8)      4  120.000(    28)      5  180.000(    47)      0
     10     10  H        4   1.027823(     9)      5  120.000(    29)      6  180.000(    48)      0
     11     11  H        5   1.027716(    10)      6  120.000(    30)      1  180.000(    49)      0
     12     12  H        6   1.026577(    11)      1  120.000(    31)      2  180.000(    50)      0
     13     13  O        7   2.800363(    12)      1  179.900(    32)      3  180.000(    51)      0
     14     14  C       13   1.203726(    13)      1  179.900(    33)      2  180.000(    52)      0
     15     15  H       14   1.031961(    14)      1  120.000(    34)      2   90.000(    53)      0
     16     16  H       14   1.031953(    15)      1  120.000(    35)      2  -90.000(    54)      0
     17     17  H        7   2.298833(    16)      1  100.000(    36)      2   90.000(    55)      0
     18     18  Cl      17   1.001257(    17)      7  160.000(    37)      1    0.000(    56)      0
     19     19  H        7   2.303655(    18)      1  100.000(    38)      2  -30.000(    57)      0
     20     20  Cl      19   0.954597(    19)      7  160.000(    39)      1    0.000(    58)      0
     21     21  H        7   2.303655(    20)      1  100.000(    40)      2 -150.000(    59)      0
     22     22  Cl      21   0.954597(    21)      7  160.000(    41)      1    0.000(    60)      0
 ---------------------------------------------------------------------------------------------------
                         Z-Matrix orientation:                         
 ---------------------------------------------------------------------
 Center     Atomic      Atomic             Coordinates (Angstroms)
 Number     Number       Type             X           Y           Z
 ---------------------------------------------------------------------
      1          6           0        0.000000    0.000000    0.000000
      2          6           0        0.000000    0.000000    1.327454
      3          6           0        1.156661    0.000000    1.995253
      4          6           0        2.315427    0.000000    1.326239
      5          6           0        2.315427    0.000000   -0.012722
      6          6           0        1.160475    0.000000   -0.679534
      7          9           0       -1.206210   -0.000000   -0.696406
      8          1           0       -0.889194   -0.000000    1.840830
      9          1           0        1.156661   -0.000000    3.022928
     10          1           0        3.205548   -0.000000    1.840151
     11          1           0        3.205456   -0.000000   -0.526580
     12          1           0        1.154172   -0.000000   -1.706091
     13          8           0       -3.628948   -0.000000   -2.100818
     14          6           0       -4.669649   -0.000000   -2.705713
     15          1           0       -5.116100    0.893705   -2.964398
     16          1           0       -5.116096   -0.893698   -2.964396
     17          1           0       -1.551917    2.263909   -0.896000
     18         17           0       -1.401344    3.249954   -0.809067
     19          1           0       -2.535000   -1.134329    0.805075
     20         17           0       -2.798517   -1.604376    1.593027
     21          1           0       -0.570285   -1.134329   -2.597912
     22         17           0       -0.019656   -1.604376   -3.220100
 ---------------------------------------------------------------------
                    Distance matrix (angstroms):
                    1          2          3          4          5
     1  C    0.000000
     2  C    1.327454   0.000000
     3  C    2.306274   1.335598   0.000000
     4  C    2.668354   2.315427   1.338027   0.000000
     5  C    2.315462   2.675308   2.318340   1.338961   0.000000
     6  C    1.344793   2.318340   2.674789   2.314528   1.333624
     7  F    1.392811   2.356045   3.581646   4.061160   3.587388
     8  H    2.044339   1.026752   2.051675   3.245674   3.702060
     9  H    3.236659   2.052437   1.027676   2.054627   3.249294
    10  H    3.696173   3.246290   2.054749   1.027823   2.055591
    11  H    3.248420   3.703024   3.249184   2.055502   1.027716
    12  H    2.059821   3.245691   3.701345   3.247082   2.053293
    13  O    4.193173   4.992225   6.299195   6.861510   6.300456
    14  C    5.396898   6.170256   7.486319   8.065229   7.486220
    15  H    5.980037   6.737446   8.046389   8.627622   8.046036
    16  H    5.980032   6.737441   8.046384   8.627617   8.046031
    17  H    2.887307   3.532347   4.563006   5.001997   4.567473
    18  Cl   3.630504   4.134089   4.996979   5.379231   5.001076
    19  H    2.891552   2.825917   4.041236   5.008488   5.047983
    20  Cl   3.597701   3.236703   4.287102   5.366341   5.595076
    21  H    2.891552   4.125581   5.036487   5.001299   4.036984
    22  Cl   3.597701   4.822308   5.581904   5.356850   4.279476
                    6          7          8          9         10
     6  C    0.000000
     7  F    2.366745   0.000000
     8  H    3.248596   2.556964   0.000000
     9  H    3.702464   4.406428   2.362812   0.000000
    10  H    3.245171   5.088981   4.094742   2.365777   0.000000
    11  H    2.050693   4.414933   4.729776   4.098361   2.366731
    12  H    1.026577   2.567269   4.093409   4.729020   4.096825
    13  O    4.995860   2.800363   4.800296   7.011051   7.889333
    14  C    6.172175   4.004088   5.912943   8.170876   9.093053
    15  H    6.739043   4.607573   6.461862   8.717472   9.650503
    16  H    6.739038   4.607568   6.461857   8.717467   9.650499
    17  H    3.539662   2.298833   3.613132   5.274436   5.936773
    18  Cl   4.140278   3.257756   4.224506   5.638243   6.229287
    19  H    4.140929   2.303655   2.251259   4.453531   5.942388
    20  Cl   4.838612   3.217292   2.506181   4.501341   6.219637
    21  H    2.821773   2.303655   4.592476   5.988563   5.936330
    22  Cl   3.228190   3.217292   5.379882   6.552339   6.211450
                   11         12         13         14         15
    11  H    0.000000
    12  H    2.366223   0.000000
    13  O    7.013366   4.799380   0.000000
    14  C    8.171040   5.908987   1.203726   0.000000
    15  H    8.717221   6.457426   1.938065   1.031961   0.000000
    16  H    8.717217   6.457421   1.938059   1.031953   1.787403
    17  H    5.281510   3.620007   3.300140   4.256829   4.342709
    18  Cl   5.644874   4.230546   4.146450   4.984103   4.898650
    19  H    6.001069   4.604633   3.305698   4.262518   4.998391
    20  Cl   6.566159   5.392769   4.111950   4.955232   5.690494
    21  H    4.453463   2.248510   3.299883   4.254775   4.991159
    22  Cl   4.497824   2.498823   4.105338   4.945811   5.681507
                   16         17         18         19         20
    16  H    0.000000
    17  H    5.191542   0.000000
    18  Cl   5.967803   1.001257   0.000000
    19  H    4.574808   3.925318   4.807553   0.000000
    20  Cl   5.162009   4.765804   5.593449   0.954597   0.000000
    21  H    4.566904   3.925318   4.807553   3.929430   4.769689
    22  Cl   5.152101   4.765804   5.593449   4.769689   5.557721
                   21         22
    21  H    0.000000
    22  Cl   0.954597   0.000000
 Stoichiometry    C7H10Cl3FO
 Framework group  C1[X(C7H10Cl3FO)]
 Deg. of freedom    60
 Full point group                 C1      NOp   1
 Largest Abelian subgroup         C1      NOp   1
 Largest concise Abelian subgroup C1      NOp   1
                         Standard orientation:                         
 ---------------------------------------------------------------------
 Center     Atomic      Atomic             Coordinates (Angstroms)
 Number     Number       Type             X           Y           Z
 ---------------------------------------------------------------------
      1          6           0       -1.012510    0.005565   -0.006057
      2          6           0       -1.674045    1.156436   -0.006297
      3          6           0       -3.009640    1.158981   -0.006639
      4          6           0       -3.680860    0.001492   -0.006739
      5          6           0       -3.013590   -1.159356   -0.006496
      6          6           0       -1.679969   -1.161897   -0.006155
      7          9           0        0.380299    0.002911   -0.005700
      8          1           0       -1.158976    2.044650   -0.006221
      9          1           0       -3.521782    2.049951   -0.006825
     10          1           0       -4.708682    0.003450   -0.007002
     11          1           0       -3.529143   -2.048404   -0.006573
     12          1           0       -1.162920   -2.048757   -0.005968
     13          8           0        3.180644   -0.007311   -0.004984
     14          6           0        4.384355   -0.013108   -0.004675
     15          1           0        4.900104   -0.014838    0.889161
     16          1           0        4.900558   -0.014949   -0.898241
     17          1           0        0.778908    0.002291    2.258310
     18         17           0        0.604789    0.002684    3.244311
     19          1           0        0.784357    1.966791   -1.140048
     20         17           0        0.620265    2.781221   -1.610187
     21          1           0        0.776871   -1.962632   -1.139806
     22         17           0        0.609676   -2.776490   -1.609845
 ---------------------------------------------------------------------
 Rotational constants (GHZ):           0.4254104           0.3253064           0.3111808
 Standard basis: 6-311++G(d,p) (5D, 7F)
 There are   370 symmetry adapted cartesian basis functions of A   symmetry.
 There are   358 symmetry adapted basis functions of A   symmetry.
   358 basis functions,   573 primitive gaussians,   370 cartesian basis functions
    60 alpha electrons       60 beta electrons
       nuclear repulsion energy       962.7752917616 Hartrees.
 NAtoms=   22 NActive=   22 NUniq=   22 SFac= 1.00D+00 NAtFMM=   60 NAOKFM=F Big=F
 Integral buffers will be    131072 words long.
 Raffenetti 2 integral format.
 Two-electron integral symmetry is turned on.
 Force inversion solution in PCM.
 ------------------------------------------------------------------------------
 Polarizable Continuum Model (PCM)
 =================================
 Model                : PCM.
 Atomic radii         : UFF (Universal Force Field).
 Polarization charges : Total charges.
 Charge compensation  : None.
 Solution method      : Matrix inversion.
 Cavity type          : Scaled VdW (van der Waals Surface) (Alpha=1.100).
 Cavity algorithm     : GePol (No added spheres)
                        Default sphere list used, NSphG=   22.
                        Lebedev-Laikov grids with approx.  5.0 points / Ang**2.
                        Smoothing algorithm: York/Karplus (Gamma=1.0000).
                        Polarization charges: spherical gaussians, with
                                              point-specific exponents (IZeta= 3).
                        Self-potential: point-specific (ISelfS= 7).
                        Self-field    : sphere-specific E.n sum rule (ISelfD= 2).
 1st derivatives      : Analytical E(r).r(x)/FMM algorithm (CHGder, D1EAlg=3).
                        Cavity 1st derivative terms included.
 Solvent              : Chloroform, Eps=   4.711300 Eps(inf)=   2.090627
 ------------------------------------------------------------------------------
 One-electron integrals computed using PRISM.
 NBasis=   358 RedAO= T EigKep=  3.67D-06  NBF=   358
 NBsUse=   357 1.00D-06 EigRej=  4.67D-07 NBFU=   357
 Initial guess from the checkpoint file:  "model_H3.chk"
 B after Tr=     0.000000   -0.000000   -0.000000
         Rot=    0.999999    0.000030    0.000685    0.001380 Ang=   0.18 deg.
 ExpMin= 3.60D-02 ExpMax= 1.06D+05 ExpMxC= 3.62D+03 IAcc=3 IRadAn=         5 AccDes= 0.00D+00
 Harris functional with IExCor= 1009 and IRadAn=       5 diagonalized for initial guess.
 HarFok:  IExCor= 1009 AccDes= 0.00D+00 IRadAn=         5 IDoV= 1 UseB2=F ITyADJ=14
 ICtDFT=  3500011 ScaDFX=  1.000000  1.000000  1.000000  1.000000
 FoFCou: FMM=F IPFlag=           0 FMFlag=      100000 FMFlg1=           0
         NFxFlg=           0 DoJE=T BraDBF=F KetDBF=T FulRan=T
         wScrn=  0.000000 ICntrl=       500 IOpCl=  0 I1Cent=   200000004 NGrid=           0
         NMat0=    1 NMatS0=      1 NMatT0=    0 NMatD0=    1 NMtDS0=    0 NMtDT0=    0
 Petite list used in FoFCou.
 Requested convergence on RMS density matrix=1.00D-08 within 128 cycles.
 Requested convergence on MAX density matrix=1.00D-06.
 Requested convergence on             energy=1.00D-06.
 No special actions if energy rises.
 Inv3:  Mode=1 IEnd=    15201003.
 Iteration    1 A*A^-1 deviation from unit magnitude is 8.22D-15 for   2219.
 Iteration    1 A*A^-1 deviation from orthogonality  is 2.46D-15 for   2245   2244.
 Iteration    1 A^-1*A deviation from unit magnitude is 7.77D-15 for   2219.
 Iteration    1 A^-1*A deviation from orthogonality  is 1.75D-15 for   2240   2008.
 Error on total polarization charges =  0.01571
 SCF Done:  E(RM062X) =  -1827.96728682     A.U. after   13 cycles
            NFock= 13  Conv=0.39D-08     -V/T= 2.0001
 DoSCS=F DFT=T ScalE2(SS,OS)=  1.000000  1.000000
 Range of M.O.s used for correlation:     1   357
 NBasis=   358 NAE=    60 NBE=    60 NFC=     0 NFV=     0
 NROrb=    357 NOA=    60 NOB=    60 NVA=   297 NVB=   297

 **** Warning!!: The largest alpha MO coefficient is  0.14643758D+03

 Symmetrizing basis deriv contribution to polar:
 IMax=3 JMax=2 DiffMx= 0.00D+00
 D1PCM: PCM CHGder 1st derivatives, ID1Alg=3 FixD1E=F DoIter=F DoCFld=F I1PDM=0.
 Calling FoFJK, ICntrl=      2127 FMM=F ISym2X=0 I1Cent= 0 IOpClX= 0 NMat=1 NMatS=1 NMatT=0.
 ***** Axes restored to original set *****
 -------------------------------------------------------------------
 Center     Atomic                   Forces (Hartrees/Bohr)
 Number     Number              X              Y              Z
 -------------------------------------------------------------------
      1        6          -0.034400660    0.000105736   -0.037297499
      2        6          -0.030072778    0.001874160    0.011441882
      3        6           0.007387068    0.000059176    0.012732803
      4        6           0.015225439   -0.000356412    0.010167262
      5        6           0.013971780    0.000067230   -0.001869464
      6        6          -0.019077470    0.001943048   -0.022573829
      7        9           0.019043342    0.000220764    0.011052610
      8        1          -0.037213751    0.002629211    0.022662006
      9        1          -0.001557811    0.000129588    0.045218339
     10        1           0.039418317   -0.000011993    0.022767205
     11        1           0.038433777    0.000136153   -0.023942001
     12        1           0.000762971    0.002700190   -0.043406378
     13        8           0.006943979   -0.000049051    0.003954483
     14        6           0.043826286    0.000001814    0.025607012
     15        1          -0.025563948    0.043590320   -0.014892183
     16        1          -0.025565994   -0.043574369   -0.014893267
     17        1          -0.061863773   -0.400011518   -0.035728458
     18       17           0.061406433    0.398720502    0.035459764
     19        1           0.150650937    0.270091174   -0.454435865
     20       17          -0.156962899   -0.274108480    0.452697843
     21        1          -0.318232713    0.270051096    0.357692558
     22       17           0.313441468   -0.274208339   -0.362414824
 -------------------------------------------------------------------
 Cartesian Forces:  Max     0.454435865 RMS     0.154075498
 -----------------------------------------------------------------------------------------------
                       Internal Coordinate Forces (Hartree/Bohr or radian)
  Cent   Atom   N1       Length/X         N2         Alpha/Y        N3         Beta/Z          J
 -----------------------------------------------------------------------------------------------
      1  C 
      2  C        1   0.033876(     1)
      3  C        2   0.082125(     2)      1   0.070280(    22)
      4  C        3   0.106280(     3)      2   0.192592(    23)      1   0.016181(    42)     0
      5  C        4   0.091114(     4)      3   0.204279(    24)      2   0.020944(    43)     0
      6  C        5   0.048168(     5)      4   0.117000(    25)      3   0.010347(    44)     0
      7  F        1  -0.008219(     6)      2  -0.000794(    26)      3   0.005474(    45)     0
      8  H        2   0.043559(     7)      3  -0.001977(    27)      4   0.004418(    46)     0
      9  H        3   0.045218(     8)      4   0.003025(    28)      5   0.000218(    47)     0
     10  H        4   0.045521(     9)      5   0.000015(    29)      6  -0.000020(    48)     0
     11  H        5   0.045256(    10)      6  -0.002947(    30)      1   0.000229(    49)     0
     12  H        6   0.043401(    11)      1   0.001997(    31)      2   0.004536(    50)     0
     13  O        7   0.000423(    12)      1  -0.000073(    32)      3   0.000000(    51)     0
     14  C       13   0.008414(    13)      1   0.000101(    33)      2  -0.000000(    52)     0
     15  H       14   0.052543(    14)      1   0.007462(    34)      2   0.000117(    53)     0
     16  H       14   0.052530(    15)      1   0.007481(    35)      2  -0.000116(    54)     0
     17  H        7  -0.001179(    16)      1   0.002117(    36)      2   0.000006(    55)     0
     18  Cl      17   0.404976(    17)      7  -0.001126(    37)      1  -0.000004(    56)     0
     19  H        7   0.004486(    18)      1   0.034515(    38)      2  -0.015143(    57)     0
     20  Cl      19   0.551972(    19)      7   0.009954(    39)      1  -0.001308(    58)     0
     21  H        7   0.004622(    20)      1   0.035524(    40)      2   0.015678(    59)     0
     22  Cl      21   0.552035(    21)      7   0.010293(    41)      1   0.001346(    60)     0
 -----------------------------------------------------------------------------------------------
 Internal  Forces:  Max     0.552035289 RMS     0.123860639

 GradGradGradGradGradGradGradGradGradGradGradGradGradGradGradGradGradGrad
 Berny optimization.
 Search for a local minimum.
 Step number   2 out of a maximum of   50
 All quantities printed in internal units (Hartrees-Bohrs-Radians)
 Update second derivatives using D2CorN and points    1    2
 DE= -3.04D-01 DEPred=-2.14D-01 R= 1.42D+00
 TightC=F SS=  1.41D+00  RLast= 3.00D-01 DXNew= 5.0454D-01 9.0000D-01
 Trust test= 1.42D+00 RLast= 3.00D-01 DXMaxT set to 5.05D-01
 The second derivative matrix:
                          d1        d2        d3        d4        d5
           d1           0.89934
           d2          -0.01897   1.01463
           d3          -0.36560   0.40636   1.57147
           d4          -0.16581   0.00441   0.39130   1.00169
           d5           0.04193  -0.19640  -0.38394  -0.00473   0.96991
           d6           0.05605   0.05794   0.02918  -0.02722  -0.05490
           d7           0.00006  -0.00118  -0.00521  -0.00119   0.00121
           d8          -0.00098   0.00106   0.00027  -0.00378  -0.00137
           d9          -0.00138  -0.00418  -0.00036   0.00155  -0.00012
           d10          0.00267  -0.00099  -0.00529  -0.00188   0.00067
           d11         -0.01846  -0.01846  -0.00162   0.01381   0.01852
           d12          0.00053   0.00060   0.00032  -0.00019  -0.00042
           d13         -0.00008  -0.00047  -0.00061  -0.00040  -0.00001
           d14         -0.00062  -0.00381  -0.00541  -0.00432  -0.00131
           d15         -0.00062  -0.00381  -0.00541  -0.00432  -0.00131
           d16         -0.00063  -0.00069  -0.00023   0.00034   0.00045
           d17         -0.02971  -0.04802  -0.05553  -0.05289  -0.03792
           d18          0.00940   0.00902   0.00005  -0.00925  -0.00956
           d19         -0.07732  -0.10674  -0.12183  -0.12825  -0.10763
                          d6        d7        d8        d9        d10
           d6           0.33160
           d7          -0.00656   0.57713
           d8           0.00104  -0.00088   0.57322
           d9           0.00044  -0.00108  -0.00079   0.57279
           d10          0.00104  -0.00109  -0.00103  -0.00079   0.57323
           d11         -0.00657  -0.00113  -0.00108  -0.00107  -0.00087
           d12         -0.00110  -0.00002   0.00003   0.00002   0.00003
           d13          0.00059  -0.00008  -0.00012  -0.00013  -0.00012
           d14         -0.00003  -0.00148  -0.00155  -0.00157  -0.00155
           d15         -0.00003  -0.00148  -0.00155  -0.00157  -0.00155
           d16          0.00225   0.00010  -0.00001   0.00001  -0.00001
           d17          0.00683  -0.03160  -0.03276  -0.03298  -0.03281
           d18          0.02389  -0.00559  -0.00016  -0.00006  -0.00016
           d19          0.03012  -0.08504  -0.08503  -0.08547  -0.08516
                          d11       d12       d13       d14       d15
           d11          0.57716
           d12         -0.00002   0.00352
           d13         -0.00008   0.00069   0.95769
           d14         -0.00147   0.00007   0.03192   0.57255
           d15         -0.00147   0.00006   0.03189  -0.00032   0.57259
           d16          0.00010  -0.00053  -0.00008   0.00001   0.00004
           d17         -0.03139  -0.00036  -0.00436  -0.03832  -0.03831
           d18         -0.00559  -0.00100  -0.00004  -0.00023  -0.00025
           d19         -0.08450  -0.00126  -0.01166  -0.09848  -0.09846
                          d16       d17       d18       d19
           d16          0.00420
           d17          0.00362   2.23383
           d18          0.00013  -0.00439   0.02554
           d19          0.00339  -0.36709   0.00169   4.60897
 ITU=  1  0
     Eigenvalues ---    0.00320   0.00444   0.02350   0.31828   0.53941
     Eigenvalues ---    0.57278   0.57289   0.57356   0.57409   0.57535
     Eigenvalues ---    0.57731   0.58279   0.76956   0.78817   0.96264
     Eigenvalues ---    1.13928   2.11632   2.25627   4.69120
 RFO step:  Lambda=-5.38354320D-02 EMin= 3.19954209D-03
 Quartic linear search produced a step of  0.28694.
 Variable       Old X    -DE/DX   Delta X   Delta X   Delta X     New X
                                 (Linear)    (Quad)   (Total)
    d1        2.50852   0.03388   0.01489  -0.06854  -0.05365   2.45487
    d2        2.52391   0.08212   0.01930  -0.04110  -0.02180   2.50212
    d3        2.52851   0.10628   0.02062  -0.03372  -0.01310   2.51540
    d4        2.53027   0.09111   0.02113  -0.03855  -0.01743   2.51284
    d5        2.52018   0.04817   0.01823  -0.06703  -0.04880   2.47138
    d6        2.63203  -0.00822  -0.00390   0.04148   0.03759   2.66962
    d7        1.94028   0.04356   0.01451  -0.06336  -0.04886   1.89143
    d8        1.94203   0.04522   0.01501  -0.06566  -0.05065   1.89137
    d9        1.94230   0.04552   0.01509  -0.06587  -0.05078   1.89153
   d10        1.94210   0.04526   0.01503  -0.06546  -0.05044   1.89167
   d11        1.93995   0.04340   0.01441  -0.06309  -0.04868   1.89127
   d12        5.29192   0.00042   0.00020  -0.01050  -0.01031   5.28161
   d13        2.27471   0.00841   0.00202  -0.00029   0.00173   2.27644
   d14        1.95012   0.05254   0.01733  -0.07540  -0.05807   1.89205
   d15        1.95011   0.05253   0.01733  -0.07538  -0.05805   1.89206
   d16        4.34416  -0.00118  -0.00063   0.03280   0.03217   4.37633
   d17        1.89210   0.40498   0.05491  -0.00312   0.05179   1.94389
   d18        4.35328   0.00449   0.00198  -0.10448  -0.10250   4.25078
   d19        1.80393   0.55197   0.02960   0.05496   0.08456   1.88849
         Item               Value     Threshold  Converged?
 Maximum Force            0.551972     0.000450     NO 
 RMS     Force            0.164495     0.000300     NO 
 Maximum Displacement     0.102497     0.001800     NO 
 RMS     Displacement     0.050415     0.001200     NO 
 Predicted change in Energy=-9.689762D-03
 GradGradGradGradGradGradGradGradGradGradGradGradGradGradGradGradGradGrad

 ---------------------------------------------------------------------------------------------------
                            Z-MATRIX (ANGSTROMS AND DEGREES)
[...]
 Alpha virt. eigenvalues --    0.29085   0.30544   0.31193   0.31345   0.31695
 Alpha virt. eigenvalues --    0.32527   0.33300   0.34763   0.36386   0.37304
 Alpha virt. eigenvalues --    0.38533   0.39897   0.40432   0.41355   0.42264
 Alpha virt. eigenvalues --    0.44377   0.45154   0.46377   0.48284   0.49406
 Alpha virt. eigenvalues --    0.49862   0.50165   0.50680   0.52026   0.52681
 Alpha virt. eigenvalues --    0.53270   0.53609   0.53698   0.55239   0.56159
 Alpha virt. eigenvalues --    0.56732   0.57219   0.57878   0.58519   0.59483
 Alpha virt. eigenvalues --    0.59780   0.60720   0.62267   0.62841   0.62919
 Alpha virt. eigenvalues --    0.63138   0.64149   0.67518   0.68536   0.69068
 Alpha virt. eigenvalues --    0.71105   0.72334   0.72807   0.74102   0.75155
 Alpha virt. eigenvalues --    0.76550   0.77778   0.77802   0.81377   0.82807
 Alpha virt. eigenvalues --    0.83591   0.84287   0.84725   0.85332   0.87080
 Alpha virt. eigenvalues --    0.88228   0.89216   0.91047   0.91097   0.91736
 Alpha virt. eigenvalues --    0.92823   0.92919   0.94198   0.94872   0.96473
 Alpha virt. eigenvalues --    0.97398   0.97676   0.98987   0.99815   0.99842
 Alpha virt. eigenvalues --    1.00938   1.03817   1.04855   1.06251   1.06608
 Alpha virt. eigenvalues --    1.06913   1.07063   1.08461   1.12619   1.14753
 Alpha virt. eigenvalues --    1.15873   1.16278   1.17223   1.17624   1.18706
 Alpha virt. eigenvalues --    1.22671   1.23843   1.26912   1.32389   1.33929
 Alpha virt. eigenvalues --    1.41949   1.44686   1.47737   1.47803   1.49104
 Alpha virt. eigenvalues --    1.52050   1.52344   1.53420   1.54332   1.54868
 Alpha virt. eigenvalues --    1.57072   1.57633   1.58304   1.60399   1.60883
 Alpha virt. eigenvalues --    1.60974   1.63449   1.64806   1.66198   1.68861
 Alpha virt. eigenvalues --    1.69845   1.70790   1.71307   1.75944   1.77362
 Alpha virt. eigenvalues --    1.77737   1.78257   1.80343   1.86323   1.87341
 Alpha virt. eigenvalues --    1.89816   1.91708   1.94550   1.94937   1.96208
 Alpha virt. eigenvalues --    1.99039   1.99483   2.01977   2.04995   2.07121
 Alpha virt. eigenvalues --    2.09746   2.10167   2.12091   2.17500   2.19862
 Alpha virt. eigenvalues --    2.24331   2.28076   2.29774   2.29858   2.30240
 Alpha virt. eigenvalues --    2.30606   2.31945   2.32890   2.33454   2.34953
 Alpha virt. eigenvalues --    2.35492   2.42198   2.43090   2.44088   2.45264
 Alpha virt. eigenvalues --    2.47091   2.48505   2.51300   2.51695   2.52890
 Alpha virt. eigenvalues --    2.53297   2.60857   2.63171   2.64173   2.65797
 Alpha virt. eigenvalues --    2.69596   2.69871   2.72149   2.73135   2.73661
 Alpha virt. eigenvalues --    2.74749   2.76136   2.76644   2.76761   2.85590
 Alpha virt. eigenvalues --    2.85641   2.86516   2.89365   2.94381   2.94745
 Alpha virt. eigenvalues --    2.95985   2.98543   2.99018   3.14155   3.19194
 Alpha virt. eigenvalues --    3.25877   3.38983   3.39573   3.42948   3.48390
 Alpha virt. eigenvalues --    3.53202   3.55514   3.56398   3.66344   3.74174
 Alpha virt. eigenvalues --    3.78871   3.86500   3.92728   4.02631   4.04117
 Alpha virt. eigenvalues --    4.04680   4.08824   4.15553   4.18926   4.20415
 Alpha virt. eigenvalues --    4.85664   4.93496   5.11070   5.21313   5.79837
 Alpha virt. eigenvalues --    6.53711   6.62913   6.89399   9.93087   9.93706
 Alpha virt. eigenvalues --    9.99917  23.68567  24.00271  24.01341  24.05027
 Alpha virt. eigenvalues --   24.15306  24.16901  24.27102  25.90862  25.92598
 Alpha virt. eigenvalues --   25.95543  26.01744  26.02196  26.03760  26.14381
 Alpha virt. eigenvalues --   26.18963  26.23540  50.05057  66.94004 216.02519
 Alpha virt. eigenvalues --  216.03152 216.10291
          Condensed to atoms (all electrons):
               1          2          3          4          5          6
     1  C   10.524429  -1.101519  -1.440699   0.236003  -1.302137  -0.954230
     2  C   -1.101519  11.217960   0.735873  -0.730451   0.009093  -3.978618
     3  C   -1.440699   0.735873   6.680898   0.351408  -0.420436  -0.097228
     4  C    0.236003  -0.730451   0.351408   6.328620   0.339290  -0.629777
     5  C   -1.302137   0.009093  -0.420436   0.339290   6.583143   0.616165
     6  C   -0.954230  -3.978618  -0.097228  -0.629777   0.616165  11.206848
     7  F    0.375770  -0.205689  -0.018641   0.001976  -0.015656  -0.200192
     8  H   -0.314757  -0.186757   0.132601   0.056297   0.190493   0.124277
     9  H    0.044399   0.058443   0.370905  -0.101709  -0.043126   0.016548
    10  H    0.033828  -0.007755  -0.060605   0.432230  -0.056435  -0.005423
    11  H    0.045194   0.019089  -0.044768  -0.100002   0.374932   0.050654
    12  H   -0.307639   0.120234   0.201675   0.051856   0.111212  -0.191896
    13  O    0.032032  -0.011531  -0.000209  -0.000748  -0.000048  -0.010850
    14  C   -0.011294   0.003197   0.001497   0.000057   0.001503   0.004004
    15  H    0.002854  -0.001120  -0.000387   0.000062  -0.000385  -0.001271
    16  H   -0.002545   0.000886   0.000212   0.000030   0.000206   0.000916
    17  H    0.063223  -0.020514  -0.030409   0.026726  -0.030370  -0.023284
    18  Cl   0.037139  -0.003396   0.011279  -0.024373   0.012489  -0.002683
    19  H    0.031845   0.169946  -0.040098  -0.002028  -0.026405  -0.055520
    20  Cl   0.023017  -0.231941   0.050092   0.004126   0.013421   0.016407
    21  H    0.029791  -0.056473  -0.029047  -0.001006  -0.037595   0.176395
    22  Cl   0.026976   0.017907   0.014458   0.003759   0.045695  -0.239129
               7          8          9         10         11         12
     1  C    0.375770  -0.314757   0.044399   0.033828   0.045194  -0.307639
     2  C   -0.205689  -0.186757   0.058443  -0.007755   0.019089   0.120234
     3  C   -0.018641   0.132601   0.370905  -0.060605  -0.044768   0.201675
     4  C    0.001976   0.056297  -0.101709   0.432230  -0.100002   0.051856
     5  C   -0.015656   0.190493  -0.043126  -0.056435   0.374932   0.111212
     6  C   -0.200192   0.124277   0.016548  -0.005423   0.050654  -0.191896
     7  F    9.233070  -0.001058  -0.000983   0.000968  -0.000993  -0.001561
     8  H   -0.001058   1.038229  -0.056723  -0.003843   0.004641  -0.026736
     9  H   -0.000983  -0.056723   0.464974  -0.006611   0.000000   0.004941
    10  H    0.000968  -0.003843  -0.006611   0.472618  -0.006264  -0.004149
    11  H   -0.000993   0.004641   0.000000  -0.006264   0.464624  -0.057206
    12  H   -0.001561  -0.026736   0.004941  -0.004149  -0.057206   1.062371
    13  O    0.008376   0.000501   0.000039   0.000002   0.000039   0.000444
    14  C    0.001794   0.002065  -0.000054   0.000009  -0.000059   0.002288
    15  H   -0.000188  -0.000247  -0.000001   0.000000  -0.000002  -0.000247
    16  H   -0.000291  -0.000134   0.000003  -0.000001   0.000003  -0.000141
    17  H   -0.007415  -0.009087  -0.000150  -0.000231  -0.000032  -0.010238
    18  Cl  -0.004509   0.005703   0.000679   0.000205   0.000643   0.006103
    19  H   -0.011545  -0.142806   0.006247   0.000629  -0.000627   0.009347
    20  Cl  -0.000770   0.176032  -0.006297  -0.000413   0.000172  -0.002480
    21  H   -0.011522   0.009557  -0.000714   0.000664   0.006396  -0.149546
    22  Cl  -0.000732  -0.002540   0.000192  -0.000421  -0.006370   0.182180
              13         14         15         16         17         18
     1  C    0.032032  -0.011294   0.002854  -0.002545   0.063223   0.037139
     2  C   -0.011531   0.003197  -0.001120   0.000886  -0.020514  -0.003396
     3  C   -0.000209   0.001497  -0.000387   0.000212  -0.030409   0.011279
     4  C   -0.000748   0.000057   0.000062   0.000030   0.026726  -0.024373
     5  C   -0.000048   0.001503  -0.000385   0.000206  -0.030370   0.012489
     6  C   -0.010850   0.004004  -0.001271   0.000916  -0.023284  -0.002683
     7  F    0.008376   0.001794  -0.000188  -0.000291  -0.007415  -0.004509
     8  H    0.000501   0.002065  -0.000247  -0.000134  -0.009087   0.005703
     9  H    0.000039  -0.000054  -0.000001   0.000003  -0.000150   0.000679
    10  H    0.000002   0.000009   0.000000  -0.000001  -0.000231   0.000205
    11  H    0.000039  -0.000059  -0.000002   0.000003  -0.000032   0.000643
    12  H    0.000444   0.002288  -0.000247  -0.000141  -0.010238   0.006103
    13  O    8.195966   0.224707  -0.086295  -0.091437   0.009414  -0.004207
    14  C    0.224707   4.951752   0.399632   0.403077  -0.007495  -0.001214
    15  H   -0.086295   0.399632   0.656308  -0.102620   0.001951   0.001282
    16  H   -0.091437   0.403077  -0.102620   0.657526  -0.000145  -0.000101
    17  H    0.009414  -0.007495   0.001951  -0.000145   0.641866   0.252881
    18  Cl  -0.004207  -0.001214   0.001282  -0.000101   0.252881  16.829790
    19  H    0.005571  -0.001982   0.000239  -0.000154   0.005290  -0.001501
    20  Cl  -0.002313   0.000281  -0.000114  -0.000046  -0.001409  -0.000274
    21  H    0.005688  -0.002175   0.000244  -0.000167   0.005726  -0.001623
    22  Cl  -0.002356   0.000335  -0.000116  -0.000046  -0.001540  -0.000247
              19         20         21         22
     1  C    0.031845   0.023017   0.029791   0.026976
     2  C    0.169946  -0.231941  -0.056473   0.017907
     3  C   -0.040098   0.050092  -0.029047   0.014458
     4  C   -0.002028   0.004126  -0.001006   0.003759
     5  C   -0.026405   0.013421  -0.037595   0.045695
     6  C   -0.055520   0.016407   0.176395  -0.239129
     7  F   -0.011545  -0.000770  -0.011522  -0.000732
     8  H   -0.142806   0.176032   0.009557  -0.002540
     9  H    0.006247  -0.006297  -0.000714   0.000192
    10  H    0.000629  -0.000413   0.000664  -0.000421
    11  H   -0.000627   0.000172   0.006396  -0.006370
    12  H    0.009347  -0.002480  -0.149546   0.182180
    13  O    0.005571  -0.002313   0.005688  -0.002356
    14  C   -0.001982   0.000281  -0.002175   0.000335
    15  H    0.000239  -0.000114   0.000244  -0.000116
    16  H   -0.000154  -0.000046  -0.000167  -0.000046
    17  H    0.005290  -0.001409   0.005726  -0.001540
    18  Cl  -0.001501  -0.000274  -0.001623  -0.000247
    19  H    0.668537   0.254403  -0.009777   0.002717
    20  Cl   0.254403  16.808062   0.002730  -0.000534
    21  H   -0.009777   0.002730   0.672649   0.252899
    22  Cl   0.002717  -0.000534   0.252899  16.807984
 Mulliken charges:
               1
     1  C   -0.071680
     2  C    0.183137
     3  C   -0.368369
     4  C   -0.242345
     5  C   -0.365048
     6  C    0.177887
     7  F   -0.140207
     8  H    0.004294
     9  H    0.248998
    10  H    0.211000
    11  H    0.249935
    12  H   -0.000811
    13  O   -0.272787
    14  C    0.028072
    15  H    0.130423
    16  H    0.134971
    17  H    0.135242
    18  Cl  -0.114068
    19  H    0.137673
    20  Cl  -0.102151
    21  H    0.136907
    22  Cl  -0.101072
 Sum of Mulliken charges =  -0.00000
 Mulliken charges with hydrogens summed into heavy atoms:
               1
     1  C   -0.071680
     2  C    0.187431
     3  C   -0.119371
     4  C   -0.031345
     5  C   -0.115113
     6  C    0.177076
     7  F   -0.140207
    13  O   -0.272787
    14  C    0.293466
    18  Cl   0.021174
    20  Cl   0.035522
    22  Cl   0.035835
 APT charges:
               1
     1  C   -0.373944
     2  C   -0.420495
     3  C   -0.398363
     4  C   -0.752519
     5  C   -0.397612
     6  C   -0.425983
     7  F   -0.175755
     8  H    0.210175
     9  H    0.770661
    10  H    0.937890
    11  H    0.772288
    12  H    0.199585
    13  O   -0.842421
    14  C   -0.268436
    15  H    0.585349
    16  H    0.564375
    17  H   -0.239544
    18  Cl   0.238181
    19  H   -0.355319
    20  Cl   0.363409
    21  H   -0.354989
    22  Cl   0.363467
 Sum of APT charges =  -0.00000
 APT charges with hydrogens summed into heavy atoms:
               1
     1  C   -0.373944
     2  C   -0.210320
     3  C    0.372298
     4  C    0.185371
     5  C    0.374677
     6  C   -0.226398
     7  F   -0.175755
    13  O   -0.842421
    14  C    0.881288
    18  Cl  -0.001363
    20  Cl   0.008090
    22  Cl   0.008478
 Electronic spatial extent (au):  <R**2>=           4886.4107
 Charge=             -0.0000 electrons
 Dipole moment (field-independent basis, Debye):
    X=              1.1891    Y=             -0.0014    Z=             -0.2446  Tot=              1.2140
 Quadrupole moment (field-independent basis, Debye-Ang):
   XX=            -60.6870   YY=            -99.0287   ZZ=           -108.0281
   XY=             -0.1602   XZ=              2.2318   YZ=              0.0042
 Traceless Quadrupole moment (field-independent basis, Debye-Ang):
   XX=             28.5610   YY=             -9.7808   ZZ=            -18.7802
   XY=             -0.1602   XZ=              2.2318   YZ=              0.0042
 Octapole moment (field-independent basis, Debye-Ang**2):
  XXX=            113.1047  YYY=             -0.0742  ZZZ=            -12.2893  XYY=            -14.4242
  XXY=             -0.1061  XXZ=              6.2888  XZZ=             17.3585  YZZ=              0.0311
  YYZ=             16.2178  XYZ=             -0.0073
 Hexadecapole moment (field-independent basis, Debye-Ang**3):
 XXXX=          -1829.1093 YYYY=          -2177.5863 ZZZZ=          -1625.9781 XXXY=             -2.3979
 XXXZ=             56.0144 YYYX=             -0.6001 YYYZ=              0.2697 ZZZX=             -8.6720
 ZZZY=              0.0410 XXYY=           -779.5384 XXZZ=           -742.6402 YYZZ=           -645.2445
 XXYZ=             -0.0384 YYXZ=             19.4268 ZZXY=             -0.2950
 N-N= 9.020328133466D+02 E-N=-6.135011181256D+03  KE= 1.823843850753D+03
  Exact polarizability:   0.000   0.000   0.000   0.000   0.000   0.000
 Approx polarizability: 162.699  -0.272 154.065   2.108   0.011 112.876
 Rotating derivatives to standard orientation.
 ***** Axes restored to original set *****
 -------------------------------------------------------------------
 Center     Atomic                   Forces (Hartrees/Bohr)
 Number     Number              X              Y              Z
 -------------------------------------------------------------------
      1        6           0.015291537   -0.001286839   -0.000594490
      2        6          -0.015896021    0.000576397    0.003577353
      3        6           0.005188890   -0.000026254    0.000396354
      4        6           0.004046329   -0.000099105   -0.003250710
      5        6          -0.006073898   -0.000018152    0.002161459
      6        6          -0.000496278    0.000620970   -0.001432632
      7        9           0.004151240   -0.000713780    0.003928477
      8        1          -0.000268420    0.001087642   -0.000456614
      9        1          -0.001359078    0.000015284    0.000000006
     10        1           0.000152444    0.000020080   -0.000263795
     11        1          -0.000700782    0.000016668   -0.001213792
     12        1           0.000744964    0.001230194   -0.000016510
     13        8           0.000009239    0.000201084   -0.000075108
     14        6           0.007318298    0.000121892    0.004451961
     15        1          -0.003663910   -0.002465495   -0.002194975
     16        1          -0.003684824    0.002479375   -0.002207444
     17        1          -0.001571267   -0.000183587   -0.000909037
     18       17           0.000334004   -0.000067536    0.000191294
     19        1          -0.000605925   -0.000489539   -0.001322561
     20       17          -0.000700861   -0.000168937   -0.000311461
     21        1          -0.001535884   -0.000585790    0.000094957
     22       17          -0.000679799   -0.000264572   -0.000552732
 -------------------------------------------------------------------
 Cartesian Forces:  Max     0.015896021 RMS     0.003422093
 -----------------------------------------------------------------------------------------------
                       Internal Coordinate Forces (Hartree/Bohr or radian)
  Cent   Atom   N1       Length/X         N2         Alpha/Y        N3         Beta/Z          J
 -----------------------------------------------------------------------------------------------
      1  C 
      2  C        1  -0.000001(     1)
      3  C        2  -0.000001(     2)      1  -0.033207(    22)
      4  C        3   0.000003(     3)      2  -0.024863(    23)      1   0.006257(    42)     0
      5  C        4   0.000004(     4)      3  -0.016997(    24)      2   0.008361(    43)     0
      6  C        5   0.000001(     5)      4   0.000031(    25)      3   0.004182(    44)     0
      7  F        1  -0.000001(     6)      2  -0.004217(    26)      3   0.002794(    45)     0
      8  H        2   0.000004(     7)      3   0.001084(    27)      4   0.001928(    46)     0
      9  H        3   0.000000(     8)      4   0.002780(    28)      5   0.000027(    47)     0
     10  H        4   0.000000(     9)      5  -0.000624(    29)      6   0.000036(    48)     0
     11  H        5   0.000000(    10)      6  -0.002867(    30)      1   0.000030(    49)     0
     12  H        6   0.000004(    11)      1   0.001524(    31)      2   0.002178(    50)     0
     13  O        7   0.000031(    12)      1  -0.000060(    32)      3  -0.000004(    51)     0
     14  C       13   0.000001(    13)      1   0.000103(    33)      2  -0.000001(    52)     0
     15  H       14   0.000000(    14)      1   0.010262(    34)      2   0.000112(    53)     0
     16  H       14   0.000000(    15)      1   0.010321(    35)      2  -0.000113(    54)     0
     17  H        7   0.000001(    16)      1   0.004681(    36)      2   0.000014(    55)     0
     18  Cl      17   0.000000(    17)      7  -0.000950(    37)      1   0.000001(    56)     0
     19  H        7   0.000013(    18)      1   0.011604(    38)      2  -0.004857(    57)     0
     20  Cl      19   0.000020(    19)      7   0.001889(    39)      1  -0.000088(    58)     0
     21  H        7   0.000185(    20)      1   0.012735(    40)      2   0.005669(    59)     0
     22  Cl      21   0.000098(    21)      7   0.002175(    41)      1   0.000133(    60)     0
 -----------------------------------------------------------------------------------------------
 Internal  Forces:  Max     0.033206573 RMS     0.006814000
 1\1\GINC-R820\POpt\RM062X\6-311++G(d,p)\C7H10Cl3F1O1\ZJXU\02-Apr-2024\
 1\\# m062x 6-311++G(d,p) opt=(recalc=5,z-matrix,maxcyc=50) scrf=(solve
 nt=chloroform)\\test\\0,1\C\C,1,d1\C,2,d2,1,120.\C,3,d3,2,120.,1,0.,0\
 C,4,d4,3,120.,2,0.,0\C,5,d5,4,120.,3,0.,0\F,1,d6,2,120.,3,180.,0\H,2,d
 7,3,120.,4,180.,0\H,3,d8,4,120.,5,180.,0\H,4,d9,5,120.,6,180.,0\H,5,d1
 0,6,120.,1,180.,0\H,6,d11,1,120.,2,180.,0\O,7,d12,1,179.9,3,180.,0\C,1
 3,d13,1,179.9,2,180.,0\H,14,d14,1,120.,2,90.,0\H,14,d15,1,120.,2,-90.,
 0\H,7,d16,1,100.,2,90.,0\Cl,17,d17,7,160.,1,0.,0\H,7,d18,1,100.,2,-30.
 ,0\Cl,19,d19,7,160.,1,0.,0\H,7,d18,1,100.,2,-150.,0\Cl,21,d19,7,160.,1
 ,0.,0\\d1=1.37971745\d2=1.38407111\d3=1.38739474\d4=1.39407209\d5=1.39
 719558\d6=1.36334555\d7=1.08289035\d8=1.08257706\d9=1.08296065\d10=1.0
 8251452\d11=1.08204901\d12=2.85645555\d13=1.20366684\d14=1.10127209\d1
 5=1.10130141\d16=2.0518572\d17=1.28709994\d18=2.60114292\d19=1.2849845
 \\Version=ES64L-G16RevB.01\State=1-A\HF=-1828.3381836\RMSD=6.320e-09\R
 MSF=3.422e-03\Dipole=-0.4006351,-0.1186056,-0.2314143\Polar=0.,0.,0.,0
 .,0.,0.\Quadrupole=14.0895986,-14.0406304,-0.0489682,0.027976,12.42187
 47,0.0249119\PG=C01 [X(C7H10Cl3F1O1)]\\@


 KNOWLEDGE IS CHIMERA - FOR BEYOND IT LIES OTHER KNOWLEDGE,
 AND THE INCOMPLETENESS OF WHAT IS KNOWN RENDERS THE KNOWING FALSE.
     -- THE THOMAS COVENANT CHRONICLES
 Job cpu time:       0 days 19 hours  6 minutes 26.7 seconds.
 Elapsed time:       0 days  4 hours 46 minutes 45.1 seconds.
 File lengths (MBytes):  RWF=    427 Int=      0 D2E=      0 Chk=     17 Scr=      1
 Normal termination of Gaussian 16 at Tue Apr  2 12:22:07 2024.
