 Entering Gaussian System, Link 0=g16
 Input=model_H1.gjf
 Output=model_H1.log
 Initial command:
 /home/lywu/software/g16/l1.exe "/home/lywu/software/g16/scr/Gau-5931.inp" -scrdir="/home/lywu/software/g16/scr/"
 Entering Link 1 = /home/lywu/software/g16/l1.exe PID=      5943.
  
 Copyright (c) 1988-2017, Gaussian, Inc.  All Rights Reserved.
  
 This is part of the Gaussian(R) 16 program.  It is based on
 the Gaussian(R) 09 system (copyright 2009, Gaussian, Inc.),
 the Gaussian(R) 03 system (copyright 2003, Gaussian, Inc.),
 the Gaussian(R) 98 system (copyright 1998, Gaussian, Inc.),
 the Gaussian(R) 94 system (copyright 1995, Gaussian, Inc.),
 the Gaussian 92(TM) system (copyright 1992, Gaussian, Inc.),
 the Gaussian 90(TM) system (copyright 1990, Gaussian, Inc.),
 the Gaussian 88(TM) system (copyright 1988, Gaussian, Inc.),
 the Gaussian 86(TM) system (copyright 1986, Carnegie Mellon
 University), and the Gaussian 82(TM) system (copyright 1983,
 Carnegie Mellon University). Gaussian is a federally registered
 trademark of Gaussian, Inc.
  
 This software contains proprietary and confidential information,
 including trade secrets, belonging to Gaussian, Inc.
  
 This software is provided under written license and may be
 used, copied, transmitted, or stored only in accord with that
 written license.
  
 The following legend is applicable only to US Government
 contracts under FAR:
  
                    RESTRICTED RIGHTS LEGEND
  
 Use, reproduction and disclosure by the US Government is
 subject to restrictions as set forth in subparagraphs (a)
 and (c) of the Commercial Computer Software - Restricted
 Rights clause in FAR 52.227-19.
  
 Gaussian, Inc.
 340 Quinnipiac St., Bldg. 40, Wallingford CT 06492
  
  
 ---------------------------------------------------------------
 Warning -- This program may not be used in any manner that
 competes with the business of Gaussian, Inc. or will provide
 assistance to any competitor of Gaussian, Inc.  The licensee
 of this program is prohibited from giving any competitor of
 Gaussian, Inc. access to this program.  By using this program,
 the user acknowledges that Gaussian, Inc. is engaged in the
 business of creating and licensing software in the field of
 computational chemistry and represents and warrants to the
 licensee that it is not a competitor of Gaussian, Inc. and that
 it will not use this program in any manner prohibited above.
 ---------------------------------------------------------------
  

 Cite this work as:
 Gaussian 16, Revision B.01,
 M. J. Frisch, G. W. Trucks, H. B. Schlegel, G. E. Scuseria, 
 M. A. Robb, J. R. Cheeseman, G. Scalmani, V. Barone, 
 G. A. Petersson, H. Nakatsuji, X. Li, M. Caricato, A. V. Marenich, 
 J. Bloino, B. G. Janesko, R. Gomperts, B. Mennucci, H. P. Hratchian, 
 J. V. Ortiz, A. F. Izmaylov, J. L. Sonnenberg, D. Williams-Young, 
 F. Ding, F. Lipparini, F. Egidi, J. Goings, B. Peng, A. Petrone, 
 T. Henderson, D. Ranasinghe, V. G. Zakrzewski, J. Gao, N. Rega, 
 G. Zheng, W. Liang, M. Hada, M. Ehara, K. Toyota, R. Fukuda, 
 J. Hasegawa, M. Ishida, T. Nakajima, Y. Honda, O. Kitao, H. Nakai, 
 T. Vreven, K. Throssell, J. A. Montgomery, Jr., J. E. Peralta, 
 F. Ogliaro, M. J. Bearpark, J. J. Heyd, E. N. Brothers, K. N. Kudin, 
 V. N. Staroverov, T. A. Keith, R. Kobayashi, J. Normand, 
 K. Raghavachari, A. P. Rendell, J. C. Burant, S. S. Iyengar, 
 J. Tomasi, M. Cossi, J. M. Millam, M. Klene, C. Adamo, R. Cammi, 
 J. W. Ochterski, R. L. Martin, K. Morokuma, O. Farkas, 
 J. B. Foresman, and D. J. Fox, Gaussian, Inc., Wallingford CT, 2016.
 
 ******************************************
 Gaussian 16:  ES64L-G16RevB.01 20-Dec-2017
                 6-Jan-2025 
 ******************************************
 %mem=2GB
 %nproc=2
 Will use up to    2 processors via shared memory.
 ----------------------------------------------------------------------
 # m062x 6-311++G(d,p) opt=(z-matrix,recalc=5) scrf=(solvent=dichloroet
 hane)
 ----------------------------------------------------------------------
 1/10=7,18=40,26=3,38=1,71=5/1,3;
 2/12=2,17=6,18=5,29=3,40=1/2;
 3/5=4,6=6,7=1111,11=2,25=1,30=1,70=2201,71=2,72=10,74=-55,140=1/1,2,3;
 4//1;
 5/5=2,38=5,53=10/2;
 8/6=4,10=90,11=11/1;
 11/6=1,8=1,9=11,15=111,16=1/1,2,10;
 10/6=1/2;
 6/7=2,8=2,9=2,10=2,28=1/1;
 7/10=1,25=1/1,2,3,16;
 1/10=7,18=40,26=3,71=5/3(3);
 2/29=3/2;
 7/9=1,25=1,44=-1/16;
 99//99;
 2/29=3/2;
 3/5=4,6=6,7=1111,11=2,25=1,30=1,70=2205,71=2,72=10,74=-55,140=1/1,2,3;
 4/5=5,16=3,69=1/1;
 5/5=2,38=5,53=10/2;
 8/6=4,10=90,11=11/1;
 11/6=1,8=1,9=11,15=111,16=1/1,2,10;
 10/6=1/2;
 7/10=1,25=1/1,2,3,16;
 1/18=40,26=3,71=5/3(-8);
 2/29=3/2;
 6/7=2,8=2,9=2,10=2,19=2,28=1/1;
 7/9=1,25=1,44=-1/16;
 99/9=1/99;
 ----
 test
 ----
 Symbolic Z-matrix:
 Charge =  0 Multiplicity = 1
 C1
 C2                   1    d1
 C3                   2    d2       1     120. 
 C4                   3    d3       2     120.     1     0.       0
 C5                   4    d4       3     120.     2     0.       0
 C6                   5    d5       4     120.     3     0.       0
 F7                   1    d6       2     120.     3     180.     0
 H8                   2    d7       3     120.     4     180.     0
 H9                   3    d8       4     120.     5     180.     0
 H10                  4    d9       5     120.     6     180.     0
 H11                  5    d10      6     120.     1     180.     0
 H12                  6    d11      1     120.     2     180.     0
 O13                  7    d12      1     179.9    3     180.     0
 C14                  13   d13      1     179.9    2     180.     0
 H15                  14   d14      1     120.     2     90.      0
 H16                  14   d15      1     120.     2    -90.      0
 H17                  7    d16      1     100.     2     90.      0
 Cl18                 17   d17      7     160.     1     0.       0
       Variables:
  d1                    1.3                      
  d2                    1.3                      
  d3                    1.3                      
  d4                    1.3                      
  d5                    1.3                      
  d6                    1.4                      
  d7                    1.                       
  d8                    1.                       
  d9                    1.                       
  d10                   1.                       
  d11                   1.                       
  d12                   2.8                      
  d13                   1.2                      
  d14                   1.                       
  d15                   1.                       
  d16                   2.3                      
  d17                   0.9                      
 

 GradGradGradGradGradGradGradGradGradGradGradGradGradGradGradGradGradGrad
 Berny optimization.
 Initialization pass.
                       ----------------------------
                       !    Initial Parameters    !
                       ! (Angstroms and Degrees)  !
 ----------------------                            ----------------------
 !      Name          Value   Derivative information (Atomic Units)     !
 ------------------------------------------------------------------------
 !       d1          1.3      calculate D2E/DX2 analytically            !
 !       d2          1.3      calculate D2E/DX2 analytically            !
 !       d3          1.3      calculate D2E/DX2 analytically            !
 !       d4          1.3      calculate D2E/DX2 analytically            !
 !       d5          1.3      calculate D2E/DX2 analytically            !
 !       d6          1.4      calculate D2E/DX2 analytically            !
 !       d7          1.0      calculate D2E/DX2 analytically            !
 !       d8          1.0      calculate D2E/DX2 analytically            !
 !       d9          1.0      calculate D2E/DX2 analytically            !
 !       d10         1.0      calculate D2E/DX2 analytically            !
 !       d11         1.0      calculate D2E/DX2 analytically            !
 !       d12         2.8      calculate D2E/DX2 analytically            !
 !       d13         1.2      calculate D2E/DX2 analytically            !
 !       d14         1.0      calculate D2E/DX2 analytically            !
 !       d15         1.0      calculate D2E/DX2 analytically            !
 !       d16         2.3      calculate D2E/DX2 analytically            !
 !       d17         0.9      calculate D2E/DX2 analytically            !
 ------------------------------------------------------------------------
 Trust Radius=3.00D-01 FncErr=1.00D-07 GrdErr=1.00D-06 EigMax=2.50D+02 EigMin=1.00D-04
 Number of steps in this run=     27 maximum allowed number of steps=    100.
 GradGradGradGradGradGradGradGradGradGradGradGradGradGradGradGradGradGrad

 ---------------------------------------------------------------------------------------------------
                            Z-MATRIX (ANGSTROMS AND DEGREES)
   CD    Cent   Atom    N1       Length/X        N2       Alpha/Y        N3        Beta/Z          J
 ---------------------------------------------------------------------------------------------------
      1      1  C 
      2      2  C        1   1.300000(     1)
      3      3  C        2   1.300000(     2)      1  120.000(    18)
      4      4  C        3   1.300000(     3)      2  120.000(    19)      1    0.000(    34)      0
      5      5  C        4   1.300000(     4)      3  120.000(    20)      2    0.000(    35)      0
      6      6  C        5   1.300000(     5)      4  120.000(    21)      3    0.000(    36)      0
      7      7  F        1   1.400000(     6)      2  120.000(    22)      3  180.000(    37)      0
      8      8  H        2   1.000000(     7)      3  120.000(    23)      4  180.000(    38)      0
      9      9  H        3   1.000000(     8)      4  120.000(    24)      5  180.000(    39)      0
     10     10  H        4   1.000000(     9)      5  120.000(    25)      6  180.000(    40)      0
     11     11  H        5   1.000000(    10)      6  120.000(    26)      1  180.000(    41)      0
     12     12  H        6   1.000000(    11)      1  120.000(    27)      2  180.000(    42)      0
     13     13  O        7   2.800000(    12)      1  179.900(    28)      3  180.000(    43)      0
     14     14  C       13   1.200000(    13)      1  179.900(    29)      2  180.000(    44)      0
     15     15  H       14   1.000000(    14)      1  120.000(    30)      2   90.000(    45)      0
     16     16  H       14   1.000000(    15)      1  120.000(    31)      2  -90.000(    46)      0
     17     17  H        7   2.300000(    16)      1  100.000(    32)      2   90.000(    47)      0
     18     18  Cl      17   0.900000(    17)      7  160.000(    33)      1    0.000(    48)      0
 ---------------------------------------------------------------------------------------------------
                         Z-Matrix orientation:                         
 ---------------------------------------------------------------------
 Center     Atomic      Atomic             Coordinates (Angstroms)
 Number     Number       Type             X           Y           Z
 ---------------------------------------------------------------------
      1          6           0        0.000000    0.000000    0.000000
      2          6           0        0.000000    0.000000    1.300000
      3          6           0        1.125833    0.000000    1.950000
      4          6           0        2.251666    0.000000    1.300000
      5          6           0        2.251666    0.000000   -0.000000
      6          6           0        1.125833    0.000000   -0.650000
      7          9           0       -1.212436   -0.000000   -0.700000
      8          1           0       -0.866025   -0.000000    1.800000
      9          1           0        1.125833   -0.000000    2.950000
     10          1           0        3.117691   -0.000000    1.800000
     11          1           0        3.117691   -0.000000   -0.500000
     12          1           0        1.125833   -0.000000   -1.650000
     13          8           0       -3.634860   -0.000000   -2.104230
     14          6           0       -4.672340   -0.000000   -2.707251
     15          1           0       -5.104965    0.866025   -2.957922
     16          1           0       -5.104965   -0.866025   -2.957922
     17          1           0       -1.558318    2.265058   -0.899695
     18         17           0       -1.422973    3.151385   -0.821554
 ---------------------------------------------------------------------
                    Distance matrix (angstroms):
                    1          2          3          4          5
     1  C    0.000000
     2  C    1.300000   0.000000
     3  C    2.251666   1.300000   0.000000
     4  C    2.600000   2.251666   1.300000   0.000000
     5  C    2.251666   2.600000   2.251666   1.300000   0.000000
     6  C    1.300000   2.251666   2.600000   2.251666   1.300000
     7  F    1.400000   2.338803   3.534119   4.000000   3.534119
     8  H    1.997498   1.000000   1.997498   3.157531   3.600000
     9  H    3.157531   1.997498   1.000000   1.997498   3.157531
    10  H    3.600000   3.157531   1.997498   1.000000   1.997498
    11  H    3.157531   3.600000   3.157531   1.997498   1.000000
    12  H    1.997498   3.157531   3.600000   3.157531   1.997498
    13  O    4.199999   4.980059   6.253077   6.799997   6.251317
    14  C    5.399997   6.155390   7.436988   7.999995   7.434452
    15  H    5.963218   6.703772   7.978755   8.543999   7.976172
    16  H    5.963218   6.703772   7.978755   8.543999   7.976172
    17  H    2.892800   3.521009   4.522822   4.948245   4.522822
    18  Cl   3.554016   4.056731   4.910107   5.285375   4.910107
                    6          7          8          9         10
     6  C    0.000000
     7  F    2.338803   0.000000
     8  H    3.157531   2.523886   0.000000
     9  H    3.600000   4.334743   2.300000   0.000000
    10  H    3.157531   5.000000   3.983717   2.300000   0.000000
    11  H    1.997498   4.334743   4.600000   3.983717   2.300000
    12  H    1.000000   2.523886   3.983717   4.600000   3.983717
    13  O    4.977849   2.800000   4.786382   6.943301   7.799997
    14  C    6.152324   3.999999   5.899436   8.100821   8.999995
    15  H    6.700697   4.582575   6.430896   8.629970   9.539387
    16  H    6.700697   4.582575   6.430896   8.629970   9.539387
    17  H    3.521009   2.300000   3.591394   5.211076   5.855246
    18  Cl   4.056731   3.160748   4.136902   5.536448   6.117303
                   11         12         13         14         15
    11  H    0.000000
    12  H    2.300000   0.000000
    13  O    6.940497   4.782313   0.000000
    14  C    8.096700   5.893776   1.200000   0.000000
    15  H    8.625744   6.425224   1.907878   1.000000   0.000000
    16  H    8.625744   6.425224   1.907878   1.000000   1.732051
    17  H    5.211076   3.591394   3.300517   4.253807   4.332700
    18  Cl   5.536448   4.136902   4.058193   4.903618   4.831563
                   16         17         18
    16  H    0.000000
    17  H    5.159329   0.000000
    18  Cl   5.853266   0.900000   0.000000
 Stoichiometry    C7H8ClFO
 Framework group  C1[X(C7H8ClFO)]
 Deg. of freedom    48
 Full point group                 C1      NOp   1
 Largest Abelian subgroup         C1      NOp   1
 Largest concise Abelian subgroup C1      NOp   1
                         Standard orientation:                         
 ---------------------------------------------------------------------
 Center     Atomic      Atomic             Coordinates (Angstroms)
 Number     Number       Type             X           Y           Z
 ---------------------------------------------------------------------
      1          6           0       -0.845935   -0.562559   -0.001337
      2          6           0       -1.491799   -0.478897   -1.126442
      3          6           0       -2.781420   -0.314963   -1.124989
      4          6           0       -3.425178   -0.234691    0.001569
      5          6           0       -2.779314   -0.318352    1.126674
      6          6           0       -1.489692   -0.482286    1.125221
      7          9           0        0.542888   -0.739103   -0.002902
      8          1           0       -0.996601   -0.540645   -1.993025
      9          1           0       -3.278239   -0.250609   -1.990454
     10          1           0       -4.417194   -0.108588    0.002687
     11          1           0       -3.274512   -0.256604    1.993257
     12          1           0       -0.992874   -0.546641    1.990686
     13          8           0        3.320535   -1.092198   -0.001145
     14          6           0        4.510953   -1.243526    0.001004
     15          1           0        5.116171   -0.447468    0.002412
     16          1           0        4.897752   -2.165690    0.000030
     17          1           0        1.224725    1.457506   -0.000234
     18         17           0        1.181459    2.356465    0.001159
 ---------------------------------------------------------------------
 Rotational constants (GHZ):           1.4908804           0.4880710           0.4139825
 Standard basis: 6-311++G(d,p) (5D, 7F)
 There are   294 symmetry adapted cartesian basis functions of A   symmetry.
 There are   284 symmetry adapted basis functions of A   symmetry.
   284 basis functions,   449 primitive gaussians,   294 cartesian basis functions
    42 alpha electrons       42 beta electrons
       nuclear repulsion energy       556.5025655466 Hartrees.
 NAtoms=   18 NActive=   18 NUniq=   18 SFac= 1.00D+00 NAtFMM=   60 NAOKFM=F Big=F
 Integral buffers will be    131072 words long.
 Raffenetti 2 integral format.
 Two-electron integral symmetry is turned on.
 Force inversion solution in PCM.
 ------------------------------------------------------------------------------
 Polarizable Continuum Model (PCM)
 =================================
 Model                : PCM.
 Atomic radii         : UFF (Universal Force Field).
 Polarization charges : Total charges.
 Charge compensation  : None.
 Solution method      : Matrix inversion.
 Cavity type          : Scaled VdW (van der Waals Surface) (Alpha=1.100).
 Cavity algorithm     : GePol (No added spheres)
                        Default sphere list used, NSphG=   18.
                        Lebedev-Laikov grids with approx.  5.0 points / Ang**2.
                        Smoothing algorithm: York/Karplus (Gamma=1.0000).
                        Polarization charges: spherical gaussians, with
                                              point-specific exponents (IZeta= 3).
                        Self-potential: point-specific (ISelfS= 7).
                        Self-field    : sphere-specific E.n sum rule (ISelfD= 2).
 1st derivatives      : Analytical E(r).r(x)/FMM algorithm (CHGder, D1EAlg=3).
                        Cavity 1st derivative terms included.
 2nd derivatives      : Analytical E(r).r(xy)/FMM algorithm (CHGder, D2EAlg=3).
                        Cavity 2nd derivative terms included.
 Solvent              : DiChloroEthane, Eps=  10.125000 Eps(inf)=   2.087447
 ------------------------------------------------------------------------------
 Spheres list:
 ISph  on   Nord     Re0    Alpha      Xe            Ye            Ze
    1   C      1    1.9255  1.100     -0.845935     -0.562559     -0.001337
    2   C      2    1.9255  1.100     -1.491799     -0.478897     -1.126442
    3   C      3    1.9255  1.100     -2.781420     -0.314963     -1.124989
    4   C      4    1.9255  1.100     -3.425178     -0.234691      0.001569
    5   C      5    1.9255  1.100     -2.779314     -0.318352      1.126674
    6   C      6    1.9255  1.100     -1.489692     -0.482286      1.125221
    7   F      7    1.6820  1.100      0.542888     -0.739103     -0.002902
    8   H      8    1.4430  1.100     -0.996601     -0.540645     -1.993025
    9   H      9    1.4430  1.100     -3.278239     -0.250609     -1.990454
   10   H     10    1.4430  1.100     -4.417194     -0.108588      0.002687
   11   H     11    1.4430  1.100     -3.274512     -0.256604      1.993257
   12   H     12    1.4430  1.100     -0.992874     -0.546641      1.990686
   13   O     13    1.7500  1.100      3.320535     -1.092198     -0.001145
   14   C     14    1.9255  1.100      4.510953     -1.243526      0.001004
   15   H     15    1.4430  1.100      5.116171     -0.447468      0.002412
   16   H     16    1.4430  1.100      4.897752     -2.165690      0.000030
   17   H     17    1.4430  1.100      1.224725      1.457506     -0.000234
   18  Cl     18    1.9735  1.100      1.181459      2.356465      0.001159
 ------------------------------------------------------------------------------
 One-electron integrals computed using PRISM.
 NBasis=   284 RedAO= T EigKep=  4.19D-06  NBF=   284
 NBsUse=   283 1.00D-06 EigRej=  5.62D-07 NBFU=   283
 ExpMin= 3.60D-02 ExpMax= 1.06D+05 ExpMxC= 3.62D+03 IAcc=3 IRadAn=         5 AccDes= 0.00D+00
 Harris functional with IExCor= 1009 and IRadAn=       5 diagonalized for initial guess.
 HarFok:  IExCor= 1009 AccDes= 0.00D+00 IRadAn=         5 IDoV= 1 UseB2=F ITyADJ=14
 ICtDFT=  3500011 ScaDFX=  1.000000  1.000000  1.000000  1.000000
 FoFCou: FMM=F IPFlag=           0 FMFlag=      100000 FMFlg1=           0
         NFxFlg=           0 DoJE=T BraDBF=F KetDBF=T FulRan=T
         wScrn=  0.000000 ICntrl=       500 IOpCl=  0 I1Cent=   200000004 NGrid=           0
         NMat0=    1 NMatS0=      1 NMatT0=    0 NMatD0=    1 NMtDS0=    0 NMtDT0=    0
 Petite list used in FoFCou.
 Requested convergence on RMS density matrix=1.00D-08 within 128 cycles.
 Requested convergence on MAX density matrix=1.00D-06.
 Requested convergence on             energy=1.00D-06.
 No special actions if energy rises.
 Inv3:  Mode=1 IEnd=     9915372.
 Iteration    1 A*A^-1 deviation from unit magnitude is 5.11D-15 for   1817.
 Iteration    1 A*A^-1 deviation from orthogonality  is 1.45D-15 for   1507   1452.
 Iteration    1 A^-1*A deviation from unit magnitude is 4.88D-15 for   1817.
 Iteration    1 A^-1*A deviation from orthogonality  is 1.35D-15 for   1810   1706.
 Error on total polarization charges =  0.01238
 SCF Done:  E(RM062X) =  -906.448792276     A.U. after   14 cycles
            NFock= 14  Conv=0.23D-08     -V/T= 1.9985
 DoSCS=F DFT=T ScalE2(SS,OS)=  1.000000  1.000000
 Range of M.O.s used for correlation:     1   283
 NBasis=   284 NAE=    42 NBE=    42 NFC=     0 NFV=     0
 NROrb=    283 NOA=    42 NOB=    42 NVA=   241 NVB=   241

 **** Warning!!: The largest alpha MO coefficient is  0.14182461D+03

 Symmetrizing basis deriv contribution to polar:
 IMax=3 JMax=2 DiffMx= 0.00D+00
 G2DrvN: will do    19 centers at a time, making    1 passes.
 Calling FoFCou, ICntrl=  3107 FMM=F I1Cent=   0 AccDes= 0.00D+00.
 NEqPCM:  Using equilibrium solvation (IEInf=0, Eps=  10.1250, EpsInf=   2.0874)
 G2PCM: DoFxE=T DoFxN=T DoGrad=T DoDP/DQ/DG/TGxP=FFFF NFrqRd=   0 IEInf=0 SqF1=F DoCFld=F IF1Alg=4.
 End of G2Drv F.D. properties file   721 does not exist.
 End of G2Drv F.D. properties file   722 does not exist.
 End of G2Drv F.D. properties file   788 does not exist.
          IDoAtm=111111111111111111
 NEqPCM:  Using equilibrium solvation (IEInf=0, Eps=  10.1250, EpsInf=   2.0874)
          Differentiating once with respect to electric field.
                with respect to dipole field.
          Differentiating once with respect to nuclear coordinates.
 CalDSu exits because no D1Ps are significant.
          There are    57 degrees of freedom in the 1st order CPHF.  IDoFFX=6 NUNeed=     3.
     54 vectors produced by pass  0 Test12= 1.78D-14 1.75D-09 XBig12= 5.62D+01 3.69D+00.
 AX will form    54 AO Fock derivatives at one time.
     54 vectors produced by pass  1 Test12= 1.78D-14 1.75D-09 XBig12= 7.26D+00 4.06D-01.
     54 vectors produced by pass  2 Test12= 1.78D-14 1.75D-09 XBig12= 9.95D-02 7.76D-02.
     54 vectors produced by pass  3 Test12= 1.78D-14 1.75D-09 XBig12= 8.49D-04 6.76D-03.
     54 vectors produced by pass  4 Test12= 1.78D-14 1.75D-09 XBig12= 3.89D-06 3.01D-04.
     53 vectors produced by pass  5 Test12= 1.78D-14 1.75D-09 XBig12= 1.95D-08 2.41D-05.
     41 vectors produced by pass  6 Test12= 1.78D-14 1.75D-09 XBig12= 5.82D-11 9.13D-07.
      6 vectors produced by pass  7 Test12= 1.78D-14 1.75D-09 XBig12= 2.00D-13 7.18D-08.
      2 vectors produced by pass  8 Test12= 1.78D-14 1.75D-09 XBig12= 6.88D-16 3.21D-09.
 InvSVY:  IOpt=1 It=  1 EMax= 4.44D-15
 Solved reduced A of dimension   372 with    57 vectors.
 Isotropic polarizability for W=    0.000000       98.02 Bohr**3.
 End of Minotr F.D. properties file   721 does not exist.
 End of Minotr F.D. properties file   722 does not exist.
 End of Minotr F.D. properties file   788 does not exist.

 **********************************************************************

            Population analysis using the SCF Density.

 **********************************************************************

 Orbital symmetries:
       Occupied  (A) (A) (A) (A) (A) (A) (A) (A) (A) (A) (A) (A)
                 (A) (A) (A) (A) (A) (A) (A) (A) (A) (A) (A) (A)
                 (A) (A) (A) (A) (A) (A) (A) (A) (A) (A) (A) (A)
                 (A) (A) (A) (A) (A) (A)
       Virtual   (A) (A) (A) (A) (A) (A) (A) (A) (A) (A) (A) (A)
                 (A) (A) (A) (A) (A) (A) (A) (A) (A) (A) (A) (A)
                 (A) (A) (A) (A) (A) (A) (A) (A) (A) (A) (A) (A)
                 (A) (A) (A) (A) (A) (A) (A) (A) (A) (A) (A) (A)
                 (A) (A) (A) (A) (A) (A) (A) (A) (A) (A) (A) (A)
                 (A) (A) (A) (A) (A) (A) (A) (A) (A) (A) (A) (A)
                 (A) (A) (A) (A) (A) (A) (A) (A) (A) (A) (A) (A)
                 (A) (A) (A) (A) (A) (A) (A) (A) (A) (A) (A) (A)
                 (A) (A) (A) (A) (A) (A) (A) (A) (A) (A) (A) (A)
                 (A) (A) (A) (A) (A) (A) (A) (A) (A) (A) (A) (A)
                 (A) (A) (A) (A) (A) (A) (A) (A) (A) (A) (A) (A)
                 (A) (A) (A) (A) (A) (A) (A) (A) (A) (A) (A) (A)
                 (A) (A) (A) (A) (A) (A) (A) (A) (A) (A) (A) (A)
                 (A) (A) (A) (A) (A) (A) (A) (A) (A) (A) (A) (A)
                 (A) (A) (A) (A) (A) (A) (A) (A) (A) (A) (A) (A)
                 (A) (A) (A) (A) (A) (A) (A) (A) (A) (A) (A) (A)
                 (A) (A) (A) (A) (A) (A) (A) (A) (A) (A) (A) (A)
                 (A) (A) (A) (A) (A) (A) (A) (A) (A) (A) (A) (A)
                 (A) (A) (A) (A) (A) (A) (A) (A) (A) (A) (A) (A)
                 (A) (A) (A) (A) (A) (A) (A) (A) (A) (A) (A) (A)
                 (A)
 The electronic state is 1-A.
 Alpha  occ. eigenvalues -- -102.64786 -25.24748 -19.63774 -10.61485 -10.61103
 Alpha  occ. eigenvalues --  -10.52272 -10.52269 -10.52059 -10.52048 -10.51332
 Alpha  occ. eigenvalues --   -9.81277  -7.53996  -7.52825  -7.52825  -1.35282
 Alpha  occ. eigenvalues --   -1.18978  -1.03657  -1.03029  -0.89220  -0.88286
 Alpha  occ. eigenvalues --   -0.74895  -0.73644  -0.72164  -0.66186  -0.60404
 Alpha  occ. eigenvalues --   -0.59104  -0.58849  -0.58373  -0.55905  -0.53835
 Alpha  occ. eigenvalues --   -0.53344  -0.52418  -0.49644  -0.47585  -0.47378
 Alpha  occ. eigenvalues --   -0.44348  -0.41934  -0.40757  -0.40734  -0.34923
 Alpha  occ. eigenvalues --   -0.33783  -0.32669
 Alpha virt. eigenvalues --   -0.00426   0.00001   0.00947   0.01567   0.02202
 Alpha virt. eigenvalues --    0.02502   0.02626   0.03488   0.03679   0.04343
 Alpha virt. eigenvalues --    0.04777   0.06488   0.07001   0.07473   0.07820
 Alpha virt. eigenvalues --    0.08143   0.08915   0.10973   0.11241   0.11554
 Alpha virt. eigenvalues --    0.11995   0.12276   0.13167   0.13609   0.13936
 Alpha virt. eigenvalues --    0.14331   0.14469   0.15006   0.15061   0.15114
 Alpha virt. eigenvalues --    0.15870   0.16566   0.16993   0.17612   0.18325
 Alpha virt. eigenvalues --    0.18627   0.19779   0.20743   0.21133   0.22016
 Alpha virt. eigenvalues --    0.22759   0.23475   0.23836   0.24847   0.26484
 Alpha virt. eigenvalues --    0.26673   0.28185   0.30101   0.31376   0.32374
 Alpha virt. eigenvalues --    0.33213   0.33449   0.34847   0.35847   0.36775
 Alpha virt. eigenvalues --    0.37337   0.39235   0.39962   0.40960   0.42554
 Alpha virt. eigenvalues --    0.42933   0.43846   0.45476   0.46776   0.49341
 Alpha virt. eigenvalues --    0.50354   0.51002   0.52793   0.54574   0.54654
 Alpha virt. eigenvalues --    0.56692   0.58174   0.59134   0.59297   0.59554
 Alpha virt. eigenvalues --    0.60851   0.61525   0.61766   0.64115   0.64448
 Alpha virt. eigenvalues --    0.65445   0.66074   0.67234   0.70170   0.70507
 Alpha virt. eigenvalues --    0.72180   0.74602   0.75283   0.76573   0.78712
 Alpha virt. eigenvalues --    0.79601   0.81662   0.81827   0.85228   0.85619
 Alpha virt. eigenvalues --    0.89199   0.90082   0.90139   0.91622   0.93677
 Alpha virt. eigenvalues --    0.95980   0.98736   1.00283   1.01128   1.02154
 Alpha virt. eigenvalues --    1.02433   1.04957   1.06247   1.08075   1.08332
 Alpha virt. eigenvalues --    1.10396   1.11686   1.16224   1.16512   1.17151
 Alpha virt. eigenvalues --    1.19712   1.23058   1.24092   1.26423   1.27466
 Alpha virt. eigenvalues --    1.32665   1.34753   1.35343   1.42063   1.51813
 Alpha virt. eigenvalues --    1.52372   1.52417   1.54237   1.56525   1.60641
 Alpha virt. eigenvalues --    1.61110   1.63178   1.64980   1.67694   1.68292
 Alpha virt. eigenvalues --    1.69830   1.72197   1.72909   1.76623   1.76798
 Alpha virt. eigenvalues --    1.78719   1.81795   1.82001   1.85313   1.85825
 Alpha virt. eigenvalues --    1.85941   1.90249   1.91668   1.94406   1.97403
 Alpha virt. eigenvalues --    1.98903   2.04481   2.04521   2.05806   2.05876
 Alpha virt. eigenvalues --    2.07364   2.11560   2.15884   2.16727   2.17361
 Alpha virt. eigenvalues --    2.19075   2.20183   2.21892   2.23832   2.28638
 Alpha virt. eigenvalues --    2.32789   2.36645   2.37446   2.41012   2.46558
 Alpha virt. eigenvalues --    2.48334   2.50655   2.51127   2.58197   2.63666
 Alpha virt. eigenvalues --    2.67098   2.71013   2.71671   2.75288   2.76849
 Alpha virt. eigenvalues --    2.76880   2.78731   2.79398   2.81236   2.86553
 Alpha virt. eigenvalues --    2.86691   2.87931   2.88845   2.90520   2.96547
 Alpha virt. eigenvalues --    2.98141   2.98739   3.03442   3.08179   3.12013
 Alpha virt. eigenvalues --    3.24215   3.27376   3.34657   3.39839   3.42085
 Alpha virt. eigenvalues --    3.46367   3.55433   3.59898   3.61831   3.64660
 Alpha virt. eigenvalues --    3.75321   3.75821   3.87229   3.89184   3.99062
 Alpha virt. eigenvalues --    4.00497   4.05309   4.09058   4.14314   4.18299
 Alpha virt. eigenvalues --    4.19489   4.26365   4.26469   4.36701   4.95730
 Alpha virt. eigenvalues --    4.95762   5.11361   5.23759   5.81391   6.52161
 Alpha virt. eigenvalues --    6.61509   6.88866  10.30848  23.73062  24.17418
 Alpha virt. eigenvalues --   24.27024  24.31808  24.54453  24.57561  24.73011
 Alpha virt. eigenvalues --   25.90854  26.03204  27.09935  50.06806  66.97148
 Alpha virt. eigenvalues --  216.52038
          Condensed to atoms (all electrons):
               1          2          3          4          5          6
     1  C   10.377216  -0.941888  -1.203265   0.004084  -1.202296  -0.938505
     2  C   -0.941888  12.054731   0.869354  -0.679082   0.136102  -5.745238
     3  C   -1.203265   0.869354   5.766132   0.415327  -0.140262   0.132187
     4  C    0.004084  -0.679082   0.415327   6.517113   0.414568  -0.673446
     5  C   -1.202296   0.136102  -0.140262   0.414568   5.766219   0.865283
     6  C   -0.938505  -5.745238   0.132187  -0.673446   0.865283  12.053850
     7  F    0.556167  -0.271649  -0.049451   0.019671  -0.049692  -0.272361
     8  H   -0.183164   0.642717  -0.018574  -0.008878   0.018387  -0.111871
     9  H    0.022226  -0.068619   0.424928  -0.112421  -0.008544   0.077530
    10  H    0.028195  -0.018910  -0.060387   0.490219  -0.060465  -0.018701
    11  H    0.022277   0.077630  -0.008519  -0.112466   0.425065  -0.068887
    12  H   -0.182989  -0.111333   0.018342  -0.008903  -0.018696   0.642182
    13  O    0.041674  -0.013078  -0.000671  -0.001153  -0.000654  -0.013076
    14  C   -0.001102  -0.000982  -0.000087   0.000412  -0.000100  -0.001136
    15  H    0.003911  -0.001403  -0.000488   0.000170  -0.000490  -0.001411
    16  H   -0.003152   0.000981   0.000342  -0.000004   0.000343   0.000985
    17  H   -0.069277   0.009541   0.010606   0.020764   0.010801   0.010101
    18  Cl   0.019896   0.010319  -0.003268  -0.022256  -0.003417   0.010110
               7          8          9         10         11         12
     1  C    0.556167  -0.183164   0.022226   0.028195   0.022277  -0.182989
     2  C   -0.271649   0.642717  -0.068619  -0.018910   0.077630  -0.111333
     3  C   -0.049451  -0.018574   0.424928  -0.060387  -0.008519   0.018342
     4  C    0.019671  -0.008878  -0.112421   0.490219  -0.112466  -0.008903
     5  C   -0.049692   0.018387  -0.008544  -0.060465   0.425065  -0.018696
     6  C   -0.272361  -0.111871   0.077530  -0.018701  -0.068887   0.642182
     7  F    9.309542  -0.030628  -0.000342   0.001200  -0.000340  -0.030565
     8  H   -0.030628   0.494783  -0.012241   0.000106   0.002915  -0.001026
     9  H   -0.000342  -0.012241   0.477686  -0.012043   0.000628   0.002915
    10  H    0.001200   0.000106  -0.012043   0.481876  -0.012050   0.000112
    11  H   -0.000340   0.002915   0.000628  -0.012050   0.477690  -0.012244
    12  H   -0.030565  -0.001026   0.002915   0.000112  -0.012244   0.494782
    13  O    0.006587   0.000273   0.000099  -0.000006   0.000099   0.000275
    14  C    0.002391  -0.000188  -0.000017   0.000008  -0.000017  -0.000184
    15  H   -0.000790  -0.000105  -0.000015   0.000003  -0.000015  -0.000107
    16  H   -0.000361   0.000054  -0.000001  -0.000003  -0.000001   0.000057
    17  H    0.027158  -0.000918  -0.000671  -0.000271  -0.000665  -0.000983
    18  Cl  -0.009187   0.002880   0.000849   0.000315   0.000844   0.002935
              13         14         15         16         17         18
     1  C    0.041674  -0.001102   0.003911  -0.003152  -0.069277   0.019896
     2  C   -0.013078  -0.000982  -0.001403   0.000981   0.009541   0.010319
     3  C   -0.000671  -0.000087  -0.000488   0.000342   0.010606  -0.003268
     4  C   -0.001153   0.000412   0.000170  -0.000004   0.020764  -0.022256
     5  C   -0.000654  -0.000100  -0.000490   0.000343   0.010801  -0.003417
     6  C   -0.013076  -0.001136  -0.001411   0.000985   0.010101   0.010110
     7  F    0.006587   0.002391  -0.000790  -0.000361   0.027158  -0.009187
     8  H    0.000273  -0.000188  -0.000105   0.000054  -0.000918   0.002880
     9  H    0.000099  -0.000017  -0.000015  -0.000001  -0.000671   0.000849
    10  H   -0.000006   0.000008   0.000003  -0.000003  -0.000271   0.000315
    11  H    0.000099  -0.000017  -0.000015  -0.000001  -0.000665   0.000844
    12  H    0.000275  -0.000184  -0.000107   0.000057  -0.000983   0.002935
    13  O    8.204404   0.279235  -0.087871  -0.090215   0.008199  -0.006429
    14  C    0.279235   4.808789   0.408968   0.413287   0.000659  -0.003012
    15  H   -0.087871   0.408968   0.681802  -0.129343  -0.000116   0.003250
    16  H   -0.090215   0.413287  -0.129343   0.684172   0.001297  -0.000831
    17  H    0.008199   0.000659  -0.000116   0.001297   0.759337   0.118533
    18  Cl  -0.006429  -0.003012   0.003250  -0.000831   0.118533  16.971760
 Mulliken charges:
               1
     1  C   -0.350009
     2  C    0.050807
     3  C   -0.152246
     4  C   -0.263720
     5  C   -0.152152
     6  C    0.052405
     7  F   -0.207351
     8  H    0.205479
     9  H    0.208055
    10  H    0.180802
    11  H    0.208056
    12  H    0.205432
    13  O   -0.327690
    14  C    0.093075
    15  H    0.124049
    16  H    0.122394
    17  H    0.095905
    18  Cl  -0.093290
 Sum of Mulliken charges =  -0.00000
 Mulliken charges with hydrogens summed into heavy atoms:
               1
     1  C   -0.350009
     2  C    0.256286
     3  C    0.055810
     4  C   -0.082919
     5  C    0.055904
     6  C    0.257836
     7  F   -0.207351
    13  O   -0.327690
    14  C    0.339518
    18  Cl   0.002615
 APT charges:
               1
     1  C    0.750608
     2  C   -0.169574
     3  C   -0.000252
     4  C   -0.085024
     5  C   -0.000248
     6  C   -0.169598
     7  F   -0.700959
     8  H    0.091584
     9  H    0.064003
    10  H    0.059619
    11  H    0.064013
    12  H    0.091575
    13  O   -0.700422
    14  C    0.691375
    15  H    0.002860
    16  H    0.000620
    17  H    0.262215
    18  Cl  -0.252396
 Sum of APT charges =  -0.00000
 APT charges with hydrogens summed into heavy atoms:
               1
     1  C    0.750608
     2  C   -0.077990
     3  C    0.063750
     4  C   -0.025405
     5  C    0.063765
     6  C   -0.078023
     7  F   -0.700959
    13  O   -0.700422
    14  C    0.694855
    18  Cl   0.009819
 Electronic spatial extent (au):  <R**2>=           2633.9309
 Charge=              0.0000 electrons
 Dipole moment (field-independent basis, Debye):
    X=              0.5253    Y=             -1.3006    Z=              0.0058  Tot=              1.4027
 Quadrupole moment (field-independent basis, Debye-Ang):
   XX=            -34.3172   YY=            -69.0713   ZZ=            -58.8399
   XY=             -5.7318   XZ=              0.0187   YZ=             -0.0203
 Traceless Quadrupole moment (field-independent basis, Debye-Ang):
   XX=             19.7590   YY=            -14.9952   ZZ=             -4.7638
   XY=             -5.7318   XZ=              0.0187   YZ=             -0.0203
 Octapole moment (field-independent basis, Debye-Ang**2):
  XXX=            134.1132  YYY=             -4.4398  ZZZ=             -0.0194  XYY=             21.5919
  XXY=            -34.0403  XXZ=              0.0609  XZZ=             -1.5745  YZZ=             -3.7223
  YYZ=              0.0150  XYZ=              0.0021
 Hexadecapole moment (field-independent basis, Debye-Ang**3):
 XXXX=          -1601.4022 YYYY=           -645.1110 ZZZZ=           -253.0616 XXXY=           -206.8206
 XXXZ=              0.2251 YYYX=            -45.6145 YYYZ=              0.0561 ZZZX=             -0.0177
 ZZZY=             -0.0488 XXYY=           -494.8772 XXZZ=           -429.1200 YYZZ=           -162.7619
 XXYZ=             -0.1306 YYXZ=              0.0117 ZZXY=             -3.6750
 N-N= 5.565025655466D+02 E-N=-3.256323313129D+03  KE= 9.078068029970D+02
  Exact polarizability: 122.044  -4.350  70.413   0.013  -0.047 101.601
 Approx polarizability: 119.953  -5.374  70.537   0.014  -0.047 102.150
 D2PCM: PCM CHGder 2nd derivatives, FixD1E=F FixD2E=F DoIter=F DoCFld=F I1PDM=0
 Calling FoFJK, ICntrl=    100127 FMM=F ISym2X=0 I1Cent= 0 IOpClX= 0 NMat=1 NMatS=1 NMatT=0.
 ***** Axes restored to original set *****
 -------------------------------------------------------------------
 Center     Atomic                   Forces (Hartrees/Bohr)
 Number     Number              X              Y              Z
 -------------------------------------------------------------------
      1        6          -0.090329790   -0.000574721   -0.052153698
      2        6          -0.053322528    0.000093385    0.015186613
      3        6           0.002546009    0.000154313    0.037466250
      4        6           0.039487279   -0.000059278    0.022800856
      5        6           0.033721866    0.000154062   -0.016526043
      6        6          -0.013508967    0.000093148   -0.053771595
      7        9           0.024917000    0.000650240    0.014384932
      8        1          -0.065608467   -0.000014875    0.035897723
      9        1          -0.001644914    0.000016351    0.073847106
     10        1           0.064312830   -0.000002875    0.037130241
     11        1           0.063130463    0.000016961   -0.038348526
     12        1          -0.001716506   -0.000013913   -0.074767502
     13        8           0.015453529    0.000526900    0.008919095
     14        6           0.061293943    0.000083478    0.035718793
     15        1          -0.039191095    0.071530172   -0.022791100
     16        1          -0.039179017   -0.071507765   -0.022784499
     17        1          -0.116503362   -0.759545869   -0.067278358
     18       17           0.116141730    0.758400286    0.067069713
 -------------------------------------------------------------------
 Cartesian Forces:  Max     0.759545869 RMS     0.152645021
 -----------------------------------------------------------------------------------------------
                       Internal Coordinate Forces (Hartree/Bohr or radian)
  Cent   Atom   N1       Length/X         N2         Alpha/Y        N3         Beta/Z          J
 -----------------------------------------------------------------------------------------------
      1  C 
      2  C        1   0.037772(     1)
      3  C        2   0.154137(     2)      1   0.163962(    18)
      4  C        3   0.222326(     3)      2   0.417102(    19)      1   0.000986(    34)     0
      5  C        4   0.184557(     4)      3   0.452184(    20)      2   0.000734(    35)     0
      6  C        5   0.078599(     5)      4   0.253279(    21)      3   0.000201(    36)     0
      7  F        1  -0.026480(     6)      2  -0.000004(    22)      3   0.001670(    37)     0
      8  H        2   0.074767(     7)      3   0.003243(    23)      4  -0.000024(    38)     0
      9  H        3   0.073847(     8)      4   0.003108(    24)      5   0.000027(    39)     0
     10  H        4   0.074262(     9)      5  -0.000001(    25)      6  -0.000005(    40)     0
     11  H        5   0.073847(    10)      6  -0.003110(    26)      1   0.000028(    41)     0
     12  H        6   0.074768(    11)      1  -0.003244(    27)      2  -0.000023(    42)     0
     13  O        7   0.001874(    12)      1   0.000012(    28)      3  -0.000006(    43)     0
     14  C       13   0.019717(    13)      1   0.000104(    29)      2  -0.000000(    44)     0
     15  H       14   0.084615(    14)      1   0.006609(    30)      2   0.000117(    45)     0
     16  H       14   0.084589(    15)      1   0.006607(    31)      2  -0.000118(    46)     0
     17  H        7  -0.001056(    16)      1   0.001998(    32)      2  -0.000023(    47)     0
     18  Cl      17   0.770168(    17)      7  -0.000653(    33)      1  -0.000008(    48)     0
 -----------------------------------------------------------------------------------------------
 Internal  Forces:  Max     0.770167576 RMS     0.159467688

 GradGradGradGradGradGradGradGradGradGradGradGradGradGradGradGradGradGrad
 Berny optimization.
 Search for a local minimum.
 Step number   1 out of a maximum of   27
 All quantities printed in internal units (Hartrees-Bohrs-Radians)
 Second derivative matrix not updated -- analytic derivatives used.
 The second derivative matrix:
                          d1        d2        d3        d4        d5
           d1           0.89070
           d2          -0.02931   1.00817
           d3          -0.36408   0.41398   1.58116
           d4          -0.15353   0.02384   0.40187   0.99736
           d5           0.05435  -0.18080  -0.37865  -0.01354   0.95811
           d6           0.04587   0.04731   0.02913  -0.01675  -0.04444
           d7           0.00094   0.00214  -0.00043   0.00256   0.00229
           d8          -0.00058   0.00412   0.00482  -0.00019  -0.00037
           d9          -0.00090  -0.00094   0.00426   0.00516   0.00085
           d10          0.00316   0.00222  -0.00077   0.00165   0.00154
           d11         -0.01059  -0.00737   0.00349   0.01016   0.01179
           d12          0.00058   0.00069   0.00041  -0.00018  -0.00048
           d13         -0.00004  -0.00006  -0.00005  -0.00001   0.00002
           d14          0.00005   0.00006   0.00004  -0.00001  -0.00004
           d15          0.00005   0.00006   0.00004  -0.00001  -0.00004
           d16         -0.00064  -0.00080  -0.00037   0.00027   0.00046
           d17          0.00009   0.00010   0.00007  -0.00001  -0.00007
                          d6        d7        d8        d9        d10
           d6           0.30849
           d7          -0.00011   0.57553
           d8           0.00096   0.00039   0.57469
           d9           0.00036   0.00018   0.00045   0.57390
           d10          0.00096   0.00010   0.00022   0.00045   0.57467
           d11         -0.00010   0.00009   0.00010   0.00018   0.00039
           d12         -0.00107  -0.00001   0.00004   0.00002   0.00004
           d13          0.00031   0.00001  -0.00001  -0.00001  -0.00001
           d14         -0.00013  -0.00000   0.00000   0.00000   0.00000
           d15         -0.00013  -0.00000   0.00000   0.00000   0.00000
           d16          0.00226   0.00006  -0.00004  -0.00002  -0.00004
           d17         -0.00079   0.00002   0.00001   0.00001   0.00001
                          d11       d12       d13       d14       d15
           d11          0.57554
           d12         -0.00001   0.00426
           d13          0.00001   0.00031   0.95648
           d14         -0.00000   0.00017   0.03206   0.57465
           d15         -0.00000   0.00013   0.03208   0.00162   0.57479
           d16          0.00006  -0.00034  -0.00003  -0.00001  -0.00001
           d17          0.00002  -0.00002  -0.00013   0.00003   0.00002
                          d16       d17
           d16          0.00484
           d17          0.00271   2.45484
 ITU=  0
     Eigenvalues ---    0.00410   0.00497   0.29875   0.57100   0.57310
     Eigenvalues ---    0.57346   0.57407   0.57447   0.57503   0.57571
     Eigenvalues ---    0.58275   0.76885   0.81390   0.96182   1.08893
     Eigenvalues ---    2.19238   2.45484
 RFO step:  Lambda=-3.30649031D-01 EMin= 4.10346792D-03
 Linear search not attempted -- first point.
 Maximum step size (   0.300) exceeded in Quadratic search.
    -- Step size scaled by   0.709
 Variable       Old X    -DE/DX   Delta X   Delta X   Delta X     New X
                                 (Linear)    (Quad)   (Total)
    d1        2.45664   0.03777   0.00000   0.05466   0.05466   2.51130
    d2        2.45664   0.15414   0.00000   0.06899   0.06899   2.52564
    d3        2.45664   0.22233   0.00000   0.07549   0.07549   2.53213
    d4        2.45664   0.18456   0.00000   0.08030   0.08030   2.53694
    d5        2.45664   0.07860   0.00000   0.07177   0.07177   2.52841
    d6        2.64562  -0.02648   0.00000  -0.03467  -0.03467   2.61095
    d7        1.88973   0.07477   0.00000   0.05789   0.05789   1.94762
    d8        1.88973   0.07385   0.00000   0.05720   0.05720   1.94692
    d9        1.88973   0.07426   0.00000   0.05742   0.05742   1.94715
   d10        1.88973   0.07385   0.00000   0.05727   0.05727   1.94699
   d11        1.88973   0.07477   0.00000   0.05756   0.05756   1.94728
   d12        5.29123   0.00187   0.00000   0.00360   0.00360   5.29484
   d13        2.26767   0.01972   0.00000   0.00762   0.00762   2.27529
   d14        1.88973   0.08462   0.00000   0.06591   0.06591   1.95563
   d15        1.88973   0.08459   0.00000   0.06588   0.06588   1.95560
   d16        4.34637  -0.00106   0.00000  -0.00339  -0.00339   4.34298
   d17        1.70075   0.77017   0.00000   0.19615   0.19615   1.89691
         Item               Value     Threshold  Converged?
 Maximum Force            0.770168     0.000450     NO 
 RMS     Force            0.210185     0.000300     NO 
 Maximum Displacement     0.196153     0.001800     NO 
 RMS     Displacement     0.072761     0.001200     NO 
 Predicted change in Energy=-1.662499D-01
 GradGradGradGradGradGradGradGradGradGradGradGradGradGradGradGradGradGrad

 ---------------------------------------------------------------------------------------------------
                            Z-MATRIX (ANGSTROMS AND DEGREES)
   CD    Cent   Atom    N1       Length/X        N2       Alpha/Y        N3        Beta/Z          J
 ---------------------------------------------------------------------------------------------------
      1      1  C 
      2      2  C        1   1.328922(     1)
      3      3  C        2   1.336510(     2)      1  120.000(    18)
      4      4  C        3   1.339945(     3)      2  120.000(    19)      1    0.000(    34)      0
      5      5  C        4   1.342491(     4)      3  120.000(    20)      2    0.000(    35)      0
      6      6  C        5   1.337978(     5)      4  120.000(    21)      3    0.000(    36)      0
      7      7  F        1   1.381653(     6)      2  120.000(    22)      3  180.000(    37)      0
      8      8  H        2   1.030635(     7)      3  120.000(    23)      4  180.000(    38)      0
      9      9  H        3   1.030267(     8)      4  120.000(    24)      5  180.000(    39)      0
     10     10  H        4   1.030387(     9)      5  120.000(    25)      6  180.000(    40)      0
     11     11  H        5   1.030305(    10)      6  120.000(    26)      1  180.000(    41)      0
     12     12  H        6   1.030457(    11)      1  120.000(    27)      2  180.000(    42)      0
     13     13  O        7   2.801907(    12)      1  179.900(    28)      3  180.000(    43)      0
     14     14  C       13   1.204032(    13)      1  179.900(    29)      2  180.000(    44)      0
     15     15  H       14   1.034876(    14)      1  120.000(    30)      2   90.000(    45)      0
     16     16  H       14   1.034860(    15)      1  120.000(    31)      2  -90.000(    46)      0
     17     17  H        7   2.298205(    16)      1  100.000(    32)      2   90.000(    47)      0
     18     18  Cl      17   1.003800(    17)      7  160.000(    33)      1    0.000(    48)      0
 ---------------------------------------------------------------------------------------------------
                         Z-Matrix orientation:                         
 ---------------------------------------------------------------------
 Center     Atomic      Atomic             Coordinates (Angstroms)
 Number     Number       Type             X           Y           Z
 ---------------------------------------------------------------------
      1          6           0        0.000000    0.000000    0.000000
      2          6           0        0.000000    0.000000    1.328922
      3          6           0        1.157452    0.000000    1.997177
      4          6           0        2.317878    0.000000    1.327205
      5          6           0        2.317878    0.000000   -0.015287
      6          6           0        1.159155    0.000000   -0.684276
      7          9           0       -1.196547   -0.000000   -0.690827
      8          1           0       -0.892556   -0.000000    1.844240
      9          1           0        1.157452   -0.000000    3.027444
     10          1           0        3.210220   -0.000000    1.842398
     11          1           0        3.210148   -0.000000   -0.530439
     12          1           0        1.149186   -0.000000   -1.714685
     13          8           0       -3.620620   -0.000000   -2.096013
     14          6           0       -4.661583   -0.000000   -2.701065
     15          1           0       -5.109294    0.896229   -2.960482
     16          1           0       -5.109287   -0.896215   -2.960478
     17          1           0       -1.542159    2.263290   -0.890366
     18         17           0       -1.391204    3.251839   -0.803212
 ---------------------------------------------------------------------
                    Distance matrix (angstroms):
                    1          2          3          4          5
     1  C    0.000000
     2  C    1.328922   0.000000
     3  C    2.308335   1.336510   0.000000
     4  C    2.670961   2.317879   1.339945   0.000000
     5  C    2.317929   2.679451   2.323059   1.342491   0.000000
     6  C    1.346059   2.323060   2.681454   2.321356   1.337978
     7  F    1.381653   2.347575   3.573048   4.052608   3.578762
     8  H    2.048872   1.030635   2.055704   3.251801   3.710084
     9  H    3.241159   2.055400   1.030267   2.058496   3.256501
    10  H    3.701344   3.251026   2.058595   1.030387   2.060890
    11  H    3.253678   3.709754   3.256134   2.060822   1.030305
    12  H    2.064164   3.253332   3.711871   3.258670   2.062473
    13  O    4.183558   4.983881   6.291596   6.854501   6.292471
    14  C    5.387589   6.162074   7.478947   8.058526   7.478388
    15  H    5.972652   6.731055   8.040754   8.622666   8.039919
    16  H    5.972642   6.731046   8.040744   8.622657   8.039909
    17  H    2.879841   3.525050   4.555029   4.993995   4.559401
    18  Cl   3.626990   4.129879   4.991221   5.373121   4.995255
                    6          7          8          9         10
     6  C    0.000000
     7  F    2.355711   0.000000
     8  H    3.256211   2.553228   0.000000
     9  H    3.711720   4.400778   2.366961   0.000000
    10  H    3.254374   5.082993   4.102776   2.370272   0.000000
    11  H    2.056754   4.409613   4.740388   4.107566   2.372837
    12  H    1.030457   2.559443   4.103005   4.742136   4.111046
    13  O    4.983900   2.801907   4.792486   7.005696   7.884888
    14  C    6.160231   4.005938   5.904690   8.165598   9.088913
    15  H    6.728878   4.611308   6.455189   8.713816   9.648067
    16  H    6.728869   4.611297   6.455179   8.713807   9.648058
    17  H    3.530163   2.298205   3.608675   5.268739   5.930901
    18  Cl   4.134361   3.259598   4.222808   5.634184   6.224694
                   11         12         13         14         15
    11  H    0.000000
    12  H    2.376973   0.000000
    13  O    7.007883   4.785025   0.000000
    14  C    8.165524   5.893895   1.204032   0.000000
    15  H    8.713292   6.443898   1.940795   1.034876   0.000000
    16  H    8.713283   6.443888   1.940781   1.034860   1.792444
    17  H    5.276026   3.611831   3.300919   4.258159   4.344961
    18  Cl   5.641038   4.225970   4.149227   4.987152   4.901725
                   16         17         18
    16  H    0.000000
    17  H    5.195405   0.000000
    18  Cl   5.973633   1.003800   0.000000
 Stoichiometry    C7H8ClFO
 Framework group  C1[X(C7H8ClFO)]
 Deg. of freedom    48
 Full point group                 C1      NOp   1
 Largest Abelian subgroup         C1      NOp   1
 Largest concise Abelian subgroup C1      NOp   1
                         Standard orientation:                         
 ---------------------------------------------------------------------
 Center     Atomic      Atomic             Coordinates (Angstroms)
 Number     Number       Type             X           Y           Z
 ---------------------------------------------------------------------
      1          6           0       -0.822193   -0.583275   -0.007957
      2          6           0       -1.480148   -0.493589   -1.159081
      3          6           0       -2.805358   -0.320159   -1.159582
      4          6           0       -3.470561   -0.236711    0.000589
      5          6           0       -2.805887   -0.327312    1.163466
      6          6           0       -1.479222   -0.500933    1.163967
      7          9           0        0.547778   -0.762563   -0.007440
      8          1           0       -0.968500   -0.557774   -2.051440
      9          1           0       -3.315448   -0.250629   -2.052007
     10          1           0       -4.492236   -0.103004    0.000203
     11          1           0       -3.317372   -0.263148    2.055539
     12          1           0       -0.960498   -0.571578    2.051535
     13          8           0        3.325986   -1.126164   -0.001501
     14          6           0        4.519830   -1.282414    0.002459
     15          1           0        5.149189   -0.460914    0.006222
     16          1           0        4.916589   -2.238194    0.000696
     17          1           0        1.237172    1.429794   -0.000313
     18         17           0        1.192615    2.432599    0.002669
 ---------------------------------------------------------------------
 Rotational constants (GHZ):           1.4008517           0.4810927           0.4050306
 Standard basis: 6-311++G(d,p) (5D, 7F)
 There are   294 symmetry adapted cartesian basis functions of A   symmetry.
 There are   284 symmetry adapted basis functions of A   symmetry.
   284 basis functions,   449 primitive gaussians,   294 cartesian basis functions
    42 alpha electrons       42 beta electrons
       nuclear repulsion energy       545.6708597456 Hartrees.
 NAtoms=   18 NActive=   18 NUniq=   18 SFac= 1.00D+00 NAtFMM=   60 NAOKFM=F Big=F
 Integral buffers will be    131072 words long.
 Raffenetti 2 integral format.
 Two-electron integral symmetry is turned on.
 Force inversion solution in PCM.
 ------------------------------------------------------------------------------
 Polarizable Continuum Model (PCM)
 =================================
 Model                : PCM.
 Atomic radii         : UFF (Universal Force Field).
 Polarization charges : Total charges.
 Charge compensation  : None.
 Solution method      : Matrix inversion.
 Cavity type          : Scaled VdW (van der Waals Surface) (Alpha=1.100).
 Cavity algorithm     : GePol (No added spheres)
                        Default sphere list used, NSphG=   18.
                        Lebedev-Laikov grids with approx.  5.0 points / Ang**2.
                        Smoothing algorithm: York/Karplus (Gamma=1.0000).
                        Polarization charges: spherical gaussians, with
                                              point-specific exponents (IZeta= 3).
                        Self-potential: point-specific (ISelfS= 7).
                        Self-field    : sphere-specific E.n sum rule (ISelfD= 2).
 1st derivatives      : Analytical E(r).r(x)/FMM algorithm (CHGder, D1EAlg=3).
                        Cavity 1st derivative terms included.
 Solvent              : DiChloroEthane, Eps=  10.125000 Eps(inf)=   2.087447
 ------------------------------------------------------------------------------
 Spheres list:
 ISph  on   Nord     Re0    Alpha      Xe            Ye            Ze
    1   C      1    1.9255  1.100     -0.822193     -0.583275     -0.007957
    2   C      2    1.9255  1.100     -1.480148     -0.493589     -1.159081
    3   C      3    1.9255  1.100     -2.805358     -0.320159     -1.159582
    4   C      4    1.9255  1.100     -3.470561     -0.236711      0.000589
    5   C      5    1.9255  1.100     -2.805887     -0.327312      1.163466
    6   C      6    1.9255  1.100     -1.479222     -0.500933      1.163967
    7   F      7    1.6820  1.100      0.547778     -0.762563     -0.007440
    8   H      8    1.4430  1.100     -0.968500     -0.557774     -2.051440
    9   H      9    1.4430  1.100     -3.315448     -0.250629     -2.052007
   10   H     10    1.4430  1.100     -4.492236     -0.103004      0.000203
   11   H     11    1.4430  1.100     -3.317372     -0.263148      2.055539
   12   H     12    1.4430  1.100     -0.960498     -0.571578      2.051535
   13   O     13    1.7500  1.100      3.325986     -1.126164     -0.001501
   14   C     14    1.9255  1.100      4.519830     -1.282414      0.002459
   15   H     15    1.4430  1.100      5.149189     -0.460914      0.006222
   16   H     16    1.4430  1.100      4.916589     -2.238194      0.000696
   17   H     17    1.4430  1.100      1.237172      1.429794     -0.000313
   18  Cl     18    1.9735  1.100      1.192615      2.432599      0.002669
 ------------------------------------------------------------------------------
 One-electron integrals computed using PRISM.
 NBasis=   284 RedAO= T EigKep=  5.42D-06  NBF=   284
 NBsUse=   283 1.00D-06 EigRej=  7.31D-07 NBFU=   283
 Initial guess from the checkpoint file:  "/home/lywu/software/g16/scr/Gau-5943.chk"
 B after Tr=    -0.000000    0.000000    0.000000
         Rot=    1.000000   -0.000425    0.000052    0.000416 Ang=  -0.07 deg.
 ExpMin= 3.60D-02 ExpMax= 1.06D+05 ExpMxC= 3.62D+03 IAcc=3 IRadAn=         5 AccDes= 0.00D+00
 Harris functional with IExCor= 1009 and IRadAn=       5 diagonalized for initial guess.
 HarFok:  IExCor= 1009 AccDes= 0.00D+00 IRadAn=         5 IDoV= 1 UseB2=F ITyADJ=14
 ICtDFT=  3500011 ScaDFX=  1.000000  1.000000  1.000000  1.000000
 FoFCou: FMM=F IPFlag=           0 FMFlag=      100000 FMFlg1=           0
         NFxFlg=           0 DoJE=T BraDBF=F KetDBF=T FulRan=T
         wScrn=  0.000000 ICntrl=       500 IOpCl=  0 I1Cent=   200000004 NGrid=           0
         NMat0=    1 NMatS0=      1 NMatT0=    0 NMatD0=    1 NMtDS0=    0 NMtDT0=    0
 Petite list used in FoFCou.
 Requested convergence on RMS density matrix=1.00D-08 within 128 cycles.
 Requested convergence on MAX density matrix=1.00D-06.
 Requested convergence on             energy=1.00D-06.
 No special actions if energy rises.
 Inv3:  Mode=1 IEnd=    10123707.
 Iteration    1 A*A^-1 deviation from unit magnitude is 4.22D-15 for   1835.
 Iteration    1 A*A^-1 deviation from orthogonality  is 2.61D-15 for   1831   1684.
 Iteration    1 A^-1*A deviation from unit magnitude is 4.44D-15 for   1835.
 Iteration    1 A^-1*A deviation from orthogonality  is 2.55D-15 for   1835   1738.
 Error on total polarization charges =  0.01304
 SCF Done:  E(RM062X) =  -906.623795164     A.U. after   13 cycles
            NFock= 13  Conv=0.45D-08     -V/T= 2.0004
 DoSCS=F DFT=T ScalE2(SS,OS)=  1.000000  1.000000
 Range of M.O.s used for correlation:     1   283
 NBasis=   284 NAE=    42 NBE=    42 NFC=     0 NFV=     0
 NROrb=    283 NOA=    42 NOB=    42 NVA=   241 NVB=   241

 **** Warning!!: The largest alpha MO coefficient is  0.12577435D+03

 Symmetrizing basis deriv contribution to polar:
 IMax=3 JMax=2 DiffMx= 0.00D+00
 D1PCM: PCM CHGder 1st derivatives, ID1Alg=3 FixD1E=F DoIter=F DoCFld=F I1PDM=0.
 Calling FoFJK, ICntrl=      2127 FMM=F ISym2X=0 I1Cent= 0 IOpClX= 0 NMat=1 NMatS=1 NMatT=0.
 ***** Axes restored to original set *****
 -------------------------------------------------------------------
 Center     Atomic                   Forces (Hartrees/Bohr)
 Number     Number              X              Y              Z
 -------------------------------------------------------------------
      1        6          -0.037113373   -0.000655845   -0.039245433
      2        6          -0.031268116    0.000140819    0.012564888
      3        6           0.007884882    0.000126975    0.013578236
      4        6           0.015654224   -0.000032319    0.008297138
      5        6           0.012116004    0.000129346   -0.002155676
      6        6          -0.015443995    0.000135785   -0.021353510
      7        9           0.017789425    0.000990140    0.010671353
      8        1          -0.038532741   -0.000022269    0.020223894
      9        1          -0.001296972    0.000020147    0.042915587
     10        1           0.037388732   -0.000000347    0.021489485
     11        1           0.036547263    0.000022240   -0.022572963
     12        1          -0.001865174   -0.000018310   -0.043336809
     13        8           0.005736425    0.000561154    0.003274839
     14        6           0.041793412    0.000107249    0.024425802
     15        1          -0.024522649    0.041172366   -0.014285147
     16        1          -0.024505134   -0.041171878   -0.014278900
     17        1          -0.060767903   -0.393979162   -0.035045650
     18       17           0.060405689    0.392473910    0.034832866
 -------------------------------------------------------------------
 Cartesian Forces:  Max     0.393979162 RMS     0.079540454
 -----------------------------------------------------------------------------------------------
                       Internal Coordinate Forces (Hartree/Bohr or radian)
  Cent   Atom   N1       Length/X         N2         Alpha/Y        N3         Beta/Z          J
 -----------------------------------------------------------------------------------------------
      1  C 
      2  C        1   0.028697(     1)
      3  C        2   0.076262(     2)      1   0.052697(    18)
      4  C        3   0.102895(     3)      2   0.172421(    19)      1   0.001188(    34)     0
      5  C        4   0.090372(     4)      3   0.196614(    20)      2   0.000890(    35)     0
      6  C        5   0.048299(     5)      4   0.118661(    21)      3   0.000295(    36)     0
      7  F        1  -0.018593(     6)      2  -0.000932(    22)      3   0.001940(    37)     0
      8  H        2   0.043482(     7)      3   0.003412(    23)      4  -0.000038(    38)     0
      9  H        3   0.042916(     8)      4   0.002525(    24)      5   0.000034(    39)     0
     10  H        4   0.043124(     9)      5  -0.000163(    25)      6  -0.000001(    40)     0
     11  H        5   0.042937(    10)      6  -0.002483(    26)      1   0.000037(    41)     0
     12  H        6   0.043353(    11)      1  -0.002815(    27)      2  -0.000031(    42)     0
     13  O        7   0.001729(    12)      1   0.000022(    28)      3  -0.000006(    43)     0
     14  C       13   0.008334(    13)      1   0.000102(    29)      2  -0.000000(    44)     0
     15  H       14   0.049846(    14)      1   0.007806(    30)      2   0.000111(    45)     0
     16  H       14   0.049837(    15)      1   0.007775(    31)      2  -0.000117(    46)     0
     17  H        7  -0.001409(    16)      1   0.001950(    32)      2   0.000082(    47)     0
     18  Cl      17   0.398620(    17)      7  -0.000982(    33)      1   0.000024(    48)     0
 -----------------------------------------------------------------------------------------------
 Internal  Forces:  Max     0.398619715 RMS     0.077289642

 GradGradGradGradGradGradGradGradGradGradGradGradGradGradGradGradGradGrad
 Berny optimization.
 Search for a local minimum.
 Step number   2 out of a maximum of   27
 All quantities printed in internal units (Hartrees-Bohrs-Radians)
 Update second derivatives using D2CorN and points    1    2
 DE= -1.75D-01 DEPred=-1.66D-01 R= 1.05D+00
 TightC=F SS=  1.41D+00  RLast= 3.00D-01 DXNew= 5.0454D-01 9.0000D-01
 Trust test= 1.05D+00 RLast= 3.00D-01 DXMaxT set to 5.05D-01
 The second derivative matrix:
                          d1        d2        d3        d4        d5
           d1           0.89091
           d2          -0.03181   1.00152
           d3          -0.36798   0.40523   1.56997
           d4          -0.15648   0.01606   0.39164   0.98825
           d5           0.05396  -0.18492  -0.38470  -0.01838   0.95673
           d6           0.04563   0.04876   0.03147  -0.01503  -0.04433
           d7           0.00025  -0.00166  -0.00582  -0.00189   0.00069
           d8          -0.00124   0.00039  -0.00049  -0.00457  -0.00193
           d9          -0.00156  -0.00469  -0.00107   0.00076  -0.00073
           d10          0.00250  -0.00152  -0.00609  -0.00273  -0.00003
           d11         -0.01127  -0.01114  -0.00187   0.00574   0.01020
           d12          0.00059   0.00052   0.00014  -0.00038  -0.00051
           d13         -0.00005  -0.00046  -0.00065  -0.00048  -0.00009
           d14         -0.00088  -0.00445  -0.00631  -0.00530  -0.00206
           d15         -0.00088  -0.00445  -0.00631  -0.00530  -0.00206
           d16         -0.00065  -0.00065  -0.00012   0.00045   0.00049
           d17         -0.03294  -0.05151  -0.06061  -0.06021  -0.04583
                          d6        d7        d8        d9        d10
           d6           0.30870
           d7           0.00022   0.57384
           d8           0.00127  -0.00126   0.57307
           d9           0.00067  -0.00148  -0.00118   0.57226
           d10          0.00127  -0.00155  -0.00140  -0.00118   0.57305
           d11          0.00022  -0.00158  -0.00154  -0.00147  -0.00125
           d12         -0.00108  -0.00006  -0.00001  -0.00003  -0.00001
           d13          0.00030  -0.00013  -0.00014  -0.00015  -0.00014
           d14          0.00034  -0.00208  -0.00203  -0.00204  -0.00203
           d15          0.00033  -0.00208  -0.00204  -0.00205  -0.00204
           d16          0.00228   0.00011   0.00000   0.00002   0.00000
           d17          0.01978  -0.03821  -0.03772  -0.03787  -0.03776
                          d11       d12       d13       d14       d15
           d11          0.57388
           d12         -0.00006   0.00426
           d13         -0.00013   0.00031   0.95648
           d14         -0.00206   0.00010   0.03188   0.57211
           d15         -0.00207   0.00006   0.03190  -0.00093   0.57224
           d16          0.00011  -0.00034  -0.00003   0.00005   0.00005
           d17         -0.03799  -0.00221  -0.00488  -0.04404  -0.04403
                          d16       d17
           d16          0.00484
           d17          0.00476   2.21507
 ITU=  1  0
 Linear search step of   0.600 exceeds DXMaxT=   0.505 but not scaled.
 Quartic linear search produced a step of  2.00000.
 Variable       Old X    -DE/DX   Delta X   Delta X   Delta X     New X
                                 (Linear)    (Quad)   (Total)
    d1        2.51130   0.02870   0.10931   0.00000   0.10931   2.62061
    d2        2.52564   0.07626   0.13799   0.00000   0.13799   2.66363
    d3        2.53213   0.10290   0.15097   0.00000   0.15097   2.68310
    d4        2.53694   0.09037   0.16059   0.00000   0.16059   2.69754
    d5        2.52841   0.04830   0.14354   0.00000   0.14354   2.67195
    d6        2.61095  -0.01859  -0.06934   0.00000  -0.06934   2.54160
    d7        1.94762   0.04348   0.11578   0.00000   0.11578   2.06340
    d8        1.94692   0.04292   0.11439   0.00000   0.11439   2.06131
    d9        1.94715   0.04312   0.11485   0.00000   0.11485   2.06200
   d10        1.94699   0.04294   0.11454   0.00000   0.11454   2.06153
   d11        1.94728   0.04335   0.11511   0.00000   0.11511   2.06239
   d12        5.29484   0.00173   0.00721   0.00000   0.00721   5.30204
   d13        2.27529   0.00833   0.01524   0.00000   0.01524   2.29053
   d14        1.95563   0.04985   0.13181   0.00000   0.13181   2.08745
   d15        1.95560   0.04984   0.13175   0.00000   0.13175   2.08735
   d16        4.34298  -0.00141  -0.00679   0.00000  -0.00679   4.33619
   d17        1.89691   0.39862   0.39231   0.00000   0.39231   2.28921
         Item               Value     Threshold  Converged?
 Maximum Force            0.398620     0.000450     NO 
 RMS     Force            0.108825     0.000300     NO 
 Maximum Displacement     0.392305     0.001800     NO 
 RMS     Displacement     0.145521     0.001200     NO 
 Predicted change in Energy=-2.362362D-02
 GradGradGradGradGradGradGradGradGradGradGradGradGradGradGradGradGradGrad

 ---------------------------------------------------------------------------------------------------
                            Z-MATRIX (ANGSTROMS AND DEGREES)
   CD    Cent   Atom    N1       Length/X        N2       Alpha/Y        N3        Beta/Z          J
 ---------------------------------------------------------------------------------------------------
      1      1  C 
      2      2  C        1   1.386767(     1)
      3      3  C        2   1.409530(     2)      1  120.000(    18)
      4      4  C        3   1.419836(     3)      2  120.000(    19)      1    0.000(    34)      0
      5      5  C        4   1.427474(     4)      3  120.000(    20)      2    0.000(    35)      0
      6      6  C        5   1.413934(     5)      4  120.000(    21)      3    0.000(    36)      0
      7      7  F        1   1.344959(     6)      2  120.000(    22)      3  180.000(    37)      0
      8      8  H        2   1.091904(     7)      3  120.000(    23)      4  180.000(    38)      0
      9      9  H        3   1.090800(     8)      4  120.000(    24)      5  180.000(    39)      0
     10     10  H        4   1.091162(     9)      5  120.000(    25)      6  180.000(    40)      0
     11     11  H        5   1.090914(    10)      6  120.000(    26)      1  180.000(    41)      0
     12     12  H        6   1.091371(    11)      1  120.000(    27)      2  180.000(    42)      0
     13     13  O        7   2.805720(    12)      1  179.900(    28)      3  180.000(    43)      0
     14     14  C       13   1.212095(    13)      1  179.900(    29)      2  180.000(    44)      0
     15     15  H       14   1.104629(    14)      1  120.000(    30)      2   90.000(    45)      0
     16     16  H       14   1.104581(    15)      1  120.000(    31)      2  -90.000(    46)      0
     17     17  H        7   2.294614(    16)      1  100.000(    32)      2   90.000(    47)      0
     18     18  Cl      17   1.211399(    17)      7  160.000(    33)      1    0.000(    48)      0
 ---------------------------------------------------------------------------------------------------
                         Z-Matrix orientation:                         
 ---------------------------------------------------------------------
 Center     Atomic      Atomic             Coordinates (Angstroms)
 Number     Number       Type             X           Y           Z
 ---------------------------------------------------------------------
      1          6           0        0.000000    0.000000    0.000000
      2          6           0        0.000000    0.000000    1.386767
      3          6           0        1.220689    0.000000    2.091532
      4          6           0        2.450303    0.000000    1.381614
      5          6           0        2.450303    0.000000   -0.045860
      6          6           0        1.225800    0.000000   -0.752827
      7          9           0       -1.164769   -0.000000   -0.672480
      8          1           0       -0.945617   -0.000000    1.932719
      9          1           0        1.220689   -0.000000    3.182332
     10          1           0        3.395277   -0.000000    1.927195
     11          1           0        3.395062   -0.000000   -0.591317
     12          1           0        1.196161   -0.000000   -1.843796
     13          8           0       -3.592142   -0.000000   -2.079578
     14          6           0       -4.640070   -0.000000   -2.688694
     15          1           0       -5.117953    0.956637   -2.965604
     16          1           0       -5.117932   -0.956595   -2.965592
     17          1           0       -1.509841    2.259753   -0.871707
     18         17           0       -1.327667    3.452748   -0.766529
 ---------------------------------------------------------------------
                    Distance matrix (angstroms):
                    1          2          3          4          5
     1  C    0.000000
     2  C    1.386767   0.000000
     3  C    2.421691   1.409530   0.000000
     4  C    2.812977   2.450308   1.419836   0.000000
     5  C    2.450732   2.838380   2.465846   1.427474   0.000000
     6  C    1.438518   2.465856   2.844364   2.460741   1.413934
     7  F    1.344959   2.365837   3.651050   4.157889   3.668977
     8  H    2.151649   1.091904   2.172119   3.440346   3.930273
     9  H    3.408419   2.171206   1.090800   2.180490   3.454443
    10  H    3.904099   3.438018   2.180789   1.091162   2.187675
    11  H    3.446172   3.929283   3.453343   2.187471   1.090914
    12  H    2.197813   3.444900   3.935404   3.460656   2.192132
    13  O    4.150678   4.991897   6.368791   6.963547   6.375511
    14  C    5.362772   6.175729   7.563005   8.175622   7.566898
    15  H    5.991944   6.786142   8.165057   8.780202   8.168142
    16  H    5.991914   6.786113   8.165028   8.780173   8.168114
    17  H    2.854116   3.533668   4.619856   5.085930   4.633708
    18  Cl   3.777795   4.280286   5.155977   5.550589   5.168548
                    6          7          8          9         10
     6  C    0.000000
     7  F    2.391919   0.000000
     8  H    3.453579   2.614400   0.000000
     9  H    3.935163   4.533209   2.500883   0.000000
    10  H    3.448064   5.249031   4.340897   2.510817   0.000000
    11  H    2.175266   4.560553   5.021180   4.355265   2.518513
    12  H    1.091371   2.635521   4.341575   5.026188   4.365373
    13  O    4.997283   2.805720   4.806519   7.130992   8.054704
    14  C    6.177055   4.017815   5.916624   8.295628   9.266781
    15  H    6.786364   4.669179   6.505160   8.882041   9.865582
    16  H    6.786335   4.669147   6.505131   8.882013   9.865554
    17  H    3.550261   2.294614   3.645496   5.384934   6.082806
    18  Cl   4.294398   3.457868   4.399246   5.831731   6.440793
                   11         12         13         14         15
    11  H    0.000000
    12  H    2.530586   0.000000
    13  O    7.143944   4.794104   0.000000
    14  C    8.304356   5.897071   1.212095   0.000000
    15  H    8.889534   6.483952   2.007061   1.104629   0.000000
    16  H    8.889506   6.483924   2.007020   1.104581   1.913232
    17  H    5.407696   3.657033   3.301729   4.266879   4.370467
    18  Cl   5.852891   4.410406   4.332830   5.156375   5.043091
                   16         17         18
    16  H    0.000000
    17  H    5.267596   0.000000
    18  Cl   6.216453   1.211399   0.000000
 Stoichiometry    C7H8ClFO
 Framework group  C1[X(C7H8ClFO)]
 Deg. of freedom    48
 Full point group                 C1      NOp   1
 Largest Abelian subgroup         C1      NOp   1
 Largest concise Abelian subgroup C1      NOp   1
                         Standard orientation:                         
 ---------------------------------------------------------------------
 Center     Atomic      Atomic             Coordinates (Angstroms)
 Number     Number       Type             X           Y           Z
 ---------------------------------------------------------------------
      1          6           0       -0.775244   -0.625088   -0.020957
      2          6           0       -1.457049   -0.523050   -1.224225
      3          6           0       -2.853233   -0.329602   -1.228946
      4          6           0       -3.561562   -0.239211   -0.001741
      5          6           0       -2.859744   -0.344244    1.236847
      6          6           0       -1.459198   -0.538296    1.241583
      7          9           0        0.556981   -0.809674   -0.016452
      8          1           0       -0.912318   -0.592564   -2.167989
      9          1           0       -3.389526   -0.249341   -2.175410
     10          1           0       -4.642393   -0.089457   -0.005396
     11          1           0       -3.403981   -0.274793    2.179756
     12          1           0       -0.897336   -0.622008    2.173460
     13          8           0        3.336111   -1.194767   -0.002158
     14          6           0        4.536710   -1.361138    0.005448
     15          1           0        5.215061   -0.489375    0.014141
     16          1           0        4.952503   -2.384468    0.002194
     17          1           0        1.261747    1.373974   -0.001008
     18         17           0        1.217085    2.584530    0.005737
 ---------------------------------------------------------------------
 Rotational constants (GHZ):           1.2435423           0.4672954           0.3876093
 Standard basis: 6-311++G(d,p) (5D, 7F)
 There are   294 symmetry adapted cartesian basis functions of A   symmetry.
 There are   284 symmetry adapted basis functions of A   symmetry.
   284 basis functions,   449 primitive gaussians,   294 cartesian basis functions
    42 alpha electrons       42 beta electrons
       nuclear repulsion energy       525.9071882481 Hartrees.
 NAtoms=   18 NActive=   18 NUniq=   18 SFac= 1.00D+00 NAtFMM=   60 NAOKFM=F Big=F
 Integral buffers will be    131072 words long.
[...]
     11          1           0       -3.479921   -0.422832    2.146585
     12          1           0       -0.987532   -0.622436    2.135499
     13          8           0        4.001449   -1.014529   -0.003079
     14          6           0        5.201577   -1.110672    0.000209
     15          1           0        5.826419   -0.204230    0.004286
     16          1           0        5.674186   -2.105071   -0.002405
     17          1           0        0.991188    1.263911   -0.001252
     18         17           0        0.869558    2.545755    0.003259
 ---------------------------------------------------------------------
 Rotational constants (GHZ):           1.3202521           0.4043275           0.3470217

 **********************************************************************

            Population analysis using the SCF Density.

 **********************************************************************

 Orbital symmetries:
       Occupied  (A) (A) (A) (A) (A) (A) (A) (A) (A) (A) (A) (A)
                 (A) (A) (A) (A) (A) (A) (A) (A) (A) (A) (A) (A)
                 (A) (A) (A) (A) (A) (A) (A) (A) (A) (A) (A) (A)
                 (A) (A) (A) (A) (A) (A)
       Virtual   (A) (A) (A) (A) (A) (A) (A) (A) (A) (A) (A) (A)
                 (A) (A) (A) (A) (A) (A) (A) (A) (A) (A) (A) (A)
                 (A) (A) (A) (A) (A) (A) (A) (A) (A) (A) (A) (A)
                 (A) (A) (A) (A) (A) (A) (A) (A) (A) (A) (A) (A)
                 (A) (A) (A) (A) (A) (A) (A) (A) (A) (A) (A) (A)
                 (A) (A) (A) (A) (A) (A) (A) (A) (A) (A) (A) (A)
                 (A) (A) (A) (A) (A) (A) (A) (A) (A) (A) (A) (A)
                 (A) (A) (A) (A) (A) (A) (A) (A) (A) (A) (A) (A)
                 (A) (A) (A) (A) (A) (A) (A) (A) (A) (A) (A) (A)
                 (A) (A) (A) (A) (A) (A) (A) (A) (A) (A) (A) (A)
                 (A) (A) (A) (A) (A) (A) (A) (A) (A) (A) (A) (A)
                 (A) (A) (A) (A) (A) (A) (A) (A) (A) (A) (A) (A)
                 (A) (A) (A) (A) (A) (A) (A) (A) (A) (A) (A) (A)
                 (A) (A) (A) (A) (A) (A) (A) (A) (A) (A) (A) (A)
                 (A) (A) (A) (A) (A) (A) (A) (A) (A) (A) (A) (A)
                 (A) (A) (A) (A) (A) (A) (A) (A) (A) (A) (A) (A)
                 (A) (A) (A) (A) (A) (A) (A) (A) (A) (A) (A) (A)
                 (A) (A) (A) (A) (A) (A) (A) (A) (A) (A) (A) (A)
                 (A) (A) (A) (A) (A) (A) (A) (A) (A) (A) (A) (A)
                 (A) (A) (A) (A) (A) (A) (A) (A) (A) (A) (A) (A)
                 (A) (A)
 The electronic state is 1-A.
 Alpha  occ. eigenvalues -- -102.67639 -25.27293 -19.64564 -10.64070 -10.63907
 Alpha  occ. eigenvalues --  -10.56109 -10.56034 -10.55864 -10.55781 -10.55277
 Alpha  occ. eigenvalues --   -9.81959  -7.54443  -7.53825  -7.53825  -1.39053
 Alpha  occ. eigenvalues --   -1.19273  -0.98123  -0.93899  -0.86442  -0.85965
 Alpha  occ. eigenvalues --   -0.72286  -0.71956  -0.71493  -0.64196  -0.59545
 Alpha  occ. eigenvalues --   -0.58750  -0.58335  -0.58156  -0.53947  -0.52563
 Alpha  occ. eigenvalues --   -0.52326  -0.50731  -0.49526  -0.47776  -0.44944
 Alpha  occ. eigenvalues --   -0.43989  -0.41774  -0.39701  -0.39698  -0.34866
 Alpha  occ. eigenvalues --   -0.32587  -0.31618
 Alpha virt. eigenvalues --   -0.00776  -0.00149   0.00327   0.00743   0.01210
 Alpha virt. eigenvalues --    0.01430   0.01929   0.02505   0.03407   0.03662
 Alpha virt. eigenvalues --    0.04249   0.06009   0.06550   0.06911   0.07474
 Alpha virt. eigenvalues --    0.08047   0.08515   0.09194   0.10532   0.10887
 Alpha virt. eigenvalues --    0.11376   0.11573   0.12002   0.12916   0.13232
 Alpha virt. eigenvalues --    0.13546   0.13609   0.13850   0.14338   0.14559
 Alpha virt. eigenvalues --    0.15148   0.15801   0.16023   0.16704   0.16819
 Alpha virt. eigenvalues --    0.16854   0.17197   0.18211   0.19500   0.19589
 Alpha virt. eigenvalues --    0.20812   0.21910   0.22423   0.23128   0.23306
 Alpha virt. eigenvalues --    0.25200   0.25460   0.27382   0.28203   0.29870
 Alpha virt. eigenvalues --    0.30031   0.30492   0.30836   0.32020   0.32695
 Alpha virt. eigenvalues --    0.33274   0.33912   0.37072   0.38178   0.39312
 Alpha virt. eigenvalues --    0.40086   0.41013   0.41208   0.42104   0.46043
 Alpha virt. eigenvalues --    0.47017   0.49071   0.49146   0.51263   0.52508
 Alpha virt. eigenvalues --    0.53046   0.54330   0.54804   0.56718   0.57611
 Alpha virt. eigenvalues --    0.57981   0.58230   0.58544   0.59587   0.60159
 Alpha virt. eigenvalues --    0.61173   0.63353   0.63507   0.65036   0.67075
 Alpha virt. eigenvalues --    0.68195   0.69937   0.70583   0.71734   0.74408
 Alpha virt. eigenvalues --    0.76696   0.77593   0.80946   0.81000   0.82300
 Alpha virt. eigenvalues --    0.84184   0.88107   0.88209   0.89934   0.91058
 Alpha virt. eigenvalues --    0.91432   0.92386   0.92669   0.94114   0.95826
 Alpha virt. eigenvalues --    0.97354   0.97988   1.01125   1.02726   1.04439
 Alpha virt. eigenvalues --    1.04924   1.05204   1.06539   1.09124   1.12149
 Alpha virt. eigenvalues --    1.12174   1.14308   1.14764   1.17425   1.18093
 Alpha virt. eigenvalues --    1.22257   1.23415   1.32528   1.33702   1.40398
 Alpha virt. eigenvalues --    1.44759   1.47253   1.48711   1.48891   1.51473
 Alpha virt. eigenvalues --    1.51746   1.52780   1.55438   1.55938   1.60044
 Alpha virt. eigenvalues --    1.60790   1.60973   1.61354   1.63196   1.68160
 Alpha virt. eigenvalues --    1.68534   1.68849   1.70403   1.74003   1.76999
 Alpha virt. eigenvalues --    1.77371   1.77926   1.79912   1.86199   1.86471
 Alpha virt. eigenvalues --    1.90123   1.91231   1.94535   1.95106   1.96162
 Alpha virt. eigenvalues --    1.98764   1.99109   2.01165   2.04459   2.06467
 Alpha virt. eigenvalues --    2.10043   2.10063   2.17186   2.17766   2.22824
 Alpha virt. eigenvalues --    2.29229   2.30515   2.30750   2.33701   2.35219
 Alpha virt. eigenvalues --    2.43740   2.43982   2.44932   2.47216   2.48657
 Alpha virt. eigenvalues --    2.50427   2.52289   2.52787   2.61287   2.64784
 Alpha virt. eigenvalues --    2.66272   2.69383   2.71951   2.72971   2.73002
 Alpha virt. eigenvalues --    2.73621   2.76404   2.76731   2.79775   2.84368
 Alpha virt. eigenvalues --    2.85230   2.85539   2.88526   2.94144   2.94292
 Alpha virt. eigenvalues --    2.94352   2.97568   2.98125   3.13696   3.18402
 Alpha virt. eigenvalues --    3.25139   3.38710   3.39350   3.42352   3.48127
 Alpha virt. eigenvalues --    3.52964   3.55402   3.56257   3.66356   3.74250
 Alpha virt. eigenvalues --    3.78872   3.86492   3.93592   3.95658   4.02850
 Alpha virt. eigenvalues --    4.06162   4.08948   4.16342   4.19189   4.20221
 Alpha virt. eigenvalues --    4.85675   4.94680   5.09689   5.20918   5.77414
 Alpha virt. eigenvalues --    6.51205   6.58477   6.88297   9.95295  23.66309
 Alpha virt. eigenvalues --   23.99337  24.01002  24.05066  24.15436  24.16923
 Alpha virt. eigenvalues --   24.27538  25.91069  26.01513  26.15092  50.03762
 Alpha virt. eigenvalues --   66.94501 216.04949
          Condensed to atoms (all electrons):
               1          2          3          4          5          6
     1  C   13.070512  -5.346741   3.434235  -3.423305   3.350118  -4.771029
     2  C   -5.346741  13.307452  -3.704695   3.175514  -3.450665   1.489600
     3  C    3.434235  -3.704695   9.634733  -3.019780   3.309327  -3.429418
     4  C   -3.423305   3.175514  -3.019780   8.871263  -2.910875   3.018050
     5  C    3.350118  -3.450665   3.309327  -2.910875   9.378202  -3.452774
     6  C   -4.771029   1.489600  -3.429418   3.018050  -3.452774  12.641292
     7  F    0.868534  -0.527681   0.128513  -0.092143   0.126341  -0.510191
     8  H   -0.275416   0.663360  -0.152655   0.097349  -0.077532   0.051357
     9  H    0.079208  -0.076369   0.392766  -0.081297   0.029870  -0.011294
    10  H   -0.015427   0.013980  -0.034491   0.386071  -0.032878   0.013998
    11  H    0.069756  -0.009352   0.027218  -0.074370   0.386975  -0.068361
    12  H   -0.259740   0.055056  -0.079658   0.093921  -0.147446   0.644494
    13  O    0.010881  -0.002416  -0.000512  -0.000126  -0.000480  -0.002642
    14  C    0.002441  -0.002510   0.000880  -0.000328   0.000869  -0.002127
    15  H   -0.000337   0.000270  -0.000177   0.000090  -0.000175   0.000230
    16  H   -0.000885   0.000389  -0.000065   0.000055  -0.000066   0.000357
    17  H   -0.044186   0.040907  -0.039588   0.041320  -0.038857   0.038997
    18  Cl   0.146558  -0.090854   0.056071  -0.055465   0.054849  -0.086779
               7          8          9         10         11         12
     1  C    0.868534  -0.275416   0.079208  -0.015427   0.069756  -0.259740
     2  C   -0.527681   0.663360  -0.076369   0.013980  -0.009352   0.055056
     3  C    0.128513  -0.152655   0.392766  -0.034491   0.027218  -0.079658
     4  C   -0.092143   0.097349  -0.081297   0.386071  -0.074370   0.093921
     5  C    0.126341  -0.077532   0.029870  -0.032878   0.386975  -0.147446
     6  C   -0.510191   0.051357  -0.011294   0.013998  -0.068361   0.644494
     7  F    9.196954  -0.028165   0.001870  -0.000849   0.001671  -0.028001
     8  H   -0.028165   0.467253  -0.006308   0.001753  -0.000039   0.002932
     9  H    0.001870  -0.006308   0.438069   0.000143   0.000516  -0.000116
    10  H   -0.000849   0.001753   0.000143   0.440840   0.000414   0.001674
    11  H    0.001671  -0.000039   0.000516   0.000414   0.437208  -0.005285
    12  H   -0.028001   0.002932  -0.000116   0.001674  -0.005285   0.464838
    13  O    0.003377   0.000795   0.000000  -0.000002  -0.000000   0.000833
    14  C   -0.000050  -0.000418   0.000013  -0.000003   0.000012  -0.000425
    15  H   -0.000139   0.000025  -0.000004   0.000001  -0.000004   0.000025
    16  H   -0.000083   0.000027  -0.000003   0.000000  -0.000003   0.000028
    17  H    0.014681   0.000163  -0.001392   0.000418  -0.001337   0.000083
    18  Cl  -0.012180  -0.002236   0.001790  -0.000508   0.001709  -0.002045
              13         14         15         16         17         18
     1  C    0.010881   0.002441  -0.000337  -0.000885  -0.044186   0.146558
     2  C   -0.002416  -0.002510   0.000270   0.000389   0.040907  -0.090854
     3  C   -0.000512   0.000880  -0.000177  -0.000065  -0.039588   0.056071
     4  C   -0.000126  -0.000328   0.000090   0.000055   0.041320  -0.055465
     5  C   -0.000480   0.000869  -0.000175  -0.000066  -0.038857   0.054849
     6  C   -0.002642  -0.002127   0.000230   0.000357   0.038997  -0.086779
     7  F    0.003377  -0.000050  -0.000139  -0.000083   0.014681  -0.012180
     8  H    0.000795  -0.000418   0.000025   0.000027   0.000163  -0.002236
     9  H    0.000000   0.000013  -0.000004  -0.000003  -0.001392   0.001790
    10  H   -0.000002  -0.000003   0.000001   0.000000   0.000418  -0.000508
    11  H   -0.000000   0.000012  -0.000004  -0.000003  -0.001337   0.001709
    12  H    0.000833  -0.000425   0.000025   0.000028   0.000083  -0.002045
    13  O    8.140120   0.305597  -0.080467  -0.083464   0.005669  -0.002493
    14  C    0.305597   4.869779   0.393226   0.396056  -0.001421  -0.000387
    15  H   -0.080467   0.393226   0.656409  -0.103839   0.000335   0.000543
    16  H   -0.083464   0.396056  -0.103839   0.659186   0.000323  -0.000049
    17  H    0.005669  -0.001421   0.000335   0.000323   0.609769   0.256485
    18  Cl  -0.002493  -0.000387   0.000543  -0.000049   0.256485  16.859946
 Mulliken charges:
               1
     1  C   -0.895177
     2  C    0.464753
     3  C   -0.522704
     4  C   -0.025944
     5  C   -0.524802
     6  C    0.436240
     7  F   -0.142458
     8  H    0.257757
     9  H    0.232539
    10  H    0.224866
    11  H    0.233276
    12  H    0.258832
    13  O   -0.294671
    14  C    0.038795
    15  H    0.133987
    16  H    0.132036
    17  H    0.117631
    18  Cl  -0.124955
 Sum of Mulliken charges =  -0.00000
 Mulliken charges with hydrogens summed into heavy atoms:
               1
     1  C   -0.895177
     2  C    0.722510
     3  C   -0.290165
     4  C    0.198922
     5  C   -0.291527
     6  C    0.695072
     7  F   -0.142458
    13  O   -0.294671
    14  C    0.304818
    18  Cl  -0.007324
 APT charges:
               1
     1  C   -0.694261
     2  C   -0.292671
     3  C   -0.559891
     4  C   -0.618349
     5  C   -0.566911
     6  C   -0.307045
     7  F   -0.150150
     8  H    0.377272
     9  H    0.753410
    10  H    0.918683
    11  H    0.754507
    12  H    0.371538
    13  O   -1.097730
    14  C   -0.137097
    15  H    0.533142
    16  H    0.726322
    17  H   -0.088265
    18  Cl   0.077494
 Sum of APT charges =  -0.00000
 APT charges with hydrogens summed into heavy atoms:
               1
     1  C   -0.694261
     2  C    0.084601
     3  C    0.193519
     4  C    0.300335
     5  C    0.187596
     6  C    0.064493
     7  F   -0.150150
    13  O   -1.097730
    14  C    1.122368
    18  Cl  -0.010771
 Electronic spatial extent (au):  <R**2>=           3115.5524
 Charge=              0.0000 electrons
 Dipole moment (field-independent basis, Debye):
    X=              0.7694    Y=             -1.9094    Z=             -0.0122  Tot=              2.0586
 Quadrupole moment (field-independent basis, Debye-Ang):
   XX=            -30.0989   YY=            -73.4587   ZZ=            -59.0837
   XY=             -4.9642   XZ=              0.1385   YZ=             -0.0496
 Traceless Quadrupole moment (field-independent basis, Debye-Ang):
   XX=             24.1149   YY=            -19.2450   ZZ=             -4.8699
   XY=             -4.9642   XZ=              0.1385   YZ=             -0.0496
 Octapole moment (field-independent basis, Debye-Ang**2):
  XXX=            179.7275  YYY=             -5.2476  ZZZ=             -0.1779  XYY=             24.8152
  XXY=            -36.8627  XXZ=             -0.1900  XZZ=             -4.0939  YZZ=             -5.1503
  YYZ=             -0.0675  XYZ=             -0.0053
 Hexadecapole moment (field-independent basis, Debye-Ang**3):
 XXXX=          -1656.9831 YYYY=           -747.6060 ZZZZ=           -281.7041 XXXY=           -241.9068
 XXXZ=              1.2244 YYYX=            -62.7794 YYYZ=              0.3355 ZZZX=              0.4970
 ZZZY=             -0.1500 XXYY=           -611.3718 XXZZ=           -519.8366 YYZZ=           -187.4317
 XXYZ=             -0.1309 YYXZ=              0.1873 ZZXY=             -1.9743
 N-N= 5.206158140612D+02 E-N=-3.181823330047D+03  KE= 9.041934865543D+02
  Exact polarizability:   0.000   0.000   0.000   0.000   0.000   0.000
 Approx polarizability: 137.571  -4.061  84.392   0.264  -0.156 119.551
 Rotating derivatives to standard orientation.
 ***** Axes restored to original set *****
 -------------------------------------------------------------------
 Center     Atomic                   Forces (Hartrees/Bohr)
 Number     Number              X              Y              Z
 -------------------------------------------------------------------
      1        6           0.015745621   -0.001698937   -0.001756363
      2        6          -0.016386182    0.000192577    0.005411831
      3        6           0.005773067    0.000157269    0.000518558
      4        6           0.004367511   -0.000052023   -0.003932157
      5        6          -0.007069427    0.000161752    0.002255344
      6        6           0.001555220    0.000195639   -0.000797988
      7        9          -0.000226431    0.001009635    0.001670082
      8        1          -0.000977850   -0.000028411   -0.001693674
      9        1          -0.001180292    0.000026282    0.000000004
     10        1           0.000175837    0.000003309   -0.000304562
     11        1          -0.000611044    0.000023540   -0.001058357
     12        1          -0.000615714   -0.000027210    0.000012216
     13        8           0.000024160    0.000101823   -0.000053842
     14        6           0.007315299    0.000077620    0.004457737
     15        1          -0.003691127   -0.002484334   -0.002212728
     16        1          -0.003654231    0.002460256   -0.002193201
     17        1          -0.000787650   -0.000071833   -0.000444002
     18       17           0.000243234   -0.000046953    0.000121104
 -------------------------------------------------------------------
 Cartesian Forces:  Max     0.016386182 RMS     0.003878626
 -----------------------------------------------------------------------------------------------
                       Internal Coordinate Forces (Hartree/Bohr or radian)
  Cent   Atom   N1       Length/X         N2         Alpha/Y        N3         Beta/Z          J
 -----------------------------------------------------------------------------------------------
      1  C 
      2  C        1   0.000000(     1)
      3  C        2   0.000000(     2)      1  -0.035633(    18)
      4  C        3   0.000000(     3)      2  -0.028413(    19)      1   0.001589(    34)     0
      5  C        4  -0.000000(     4)      3  -0.017998(    20)      2   0.001225(    35)     0
      6  C        5  -0.000000(     5)      4   0.001154(    21)      3   0.000421(    36)     0
      7  F        1   0.000000(     6)      2  -0.003987(    22)      3   0.001675(    37)     0
      8  H        2   0.000000(     7)      3   0.004006(    23)      4  -0.000050(    38)     0
      9  H        3   0.000000(     8)      4   0.002415(    24)      5   0.000047(    39)     0
     10  H        4  -0.000000(     9)      5  -0.000720(    25)      6   0.000006(    40)     0
     11  H        5  -0.000000(    10)      6  -0.002500(    26)      1   0.000042(    41)     0
     12  H        6   0.000000(    11)      1  -0.001261(    27)      2  -0.000048(    42)     0
     13  O        7   0.000006(    12)      1   0.000009(    28)      3  -0.000002(    43)     0
     14  C       13  -0.000000(    13)      1   0.000110(    29)      2  -0.000000(    44)     0
     15  H       14   0.000000(    14)      1   0.010337(    30)      2   0.000115(    45)     0
     16  H       14   0.000000(    15)      1   0.010238(    31)      2  -0.000118(    46)     0
     17  H        7  -0.000007(    16)      1   0.001840(    32)      2   0.000069(    47)     0
     18  Cl      17   0.000001(    17)      7  -0.000670(    33)      1   0.000014(    48)     0
 -----------------------------------------------------------------------------------------------
 Internal  Forces:  Max     0.035632544 RMS     0.007459493
 1\1\GINC-LOCALHOST\POpt\RM062X\6-311++G(d,p)\C7H8Cl1F1O1\LYWU\06-Jan-2
 025\1\\# m062x 6-311++G(d,p) opt=(z-matrix,recalc=5) scrf=(solvent=dic
 hloroethane)\\test\\0,1\C\C,1,d1\C,2,d2,1,120.\C,3,d3,2,120.,1,0.,0\C,
 4,d4,3,120.,2,0.,0\C,5,d5,4,120.,3,0.,0\F,1,d6,2,120.,3,180.,0\H,2,d7,
 3,120.,4,180.,0\H,3,d8,4,120.,5,180.,0\H,4,d9,5,120.,6,180.,0\H,5,d10,
 6,120.,1,180.,0\H,6,d11,1,120.,2,180.,0\O,7,d12,1,179.9,3,180.,0\C,13,
 d13,1,179.9,2,180.,0\H,14,d14,1,120.,2,90.,0\H,14,d15,1,120.,2,-90.,0\
 H,7,d16,1,100.,2,90.,0\Cl,17,d17,7,160.,1,0.,0\\d1=1.37893733\d2=1.383
 6684\d3=1.38775082\d4=1.39550784\d5=1.39890929\d6=1.35408392\d7=1.0839
 8837\d8=1.0827159\d9=1.08305885\d10=1.08264858\d11=1.08326785\d12=3.54
 066215\d13=1.20397689\d14=1.10094554\d15=1.10099717\d16=2.06213362\d17
 =1.28760959\\Version=ES64L-G16RevB.01\State=1-A\HF=-906.7387278\RMSD=4
 .951e-09\RMSF=3.879e-03\Dipole=-0.3143557,-0.7246575,-0.1789958\Polar=
 0.,0.,0.,0.,0.,0.\Quadrupole=12.7279472,-14.6902006,1.9622535,0.938238
 3,9.5542537,0.5301073\PG=C01 [X(C7H8Cl1F1O1)]\\@


 GROWING OLD ISN'T SO BAD -- WHEN YOU CONSIDER THE ALTERNATIVE.

                     -- MAURICE CHEVALIER
 Job cpu time:       0 days  3 hours 35 minutes  1.0 seconds.
 Elapsed time:       0 days  1 hours 47 minutes 41.5 seconds.
 File lengths (MBytes):  RWF=    255 Int=      0 D2E=      0 Chk=     17 Scr=      1
 Normal termination of Gaussian 16 at Mon Jan  6 20:30:26 2025.
