 Entering Gaussian System, Link 0=g16
 Input=model_H2b.gjf
 Output=model_H2b.log
 Initial command:
 /home/lywu/software/g16/l1.exe "/home/lywu/software/g16/scr/Gau-5935.inp" -scrdir="/home/lywu/software/g16/scr/"
 Entering Link 1 = /home/lywu/software/g16/l1.exe PID=      5952.
  
 Copyright (c) 1988-2017, Gaussian, Inc.  All Rights Reserved.
  
 This is part of the Gaussian(R) 16 program.  It is based on
 the Gaussian(R) 09 system (copyright 2009, Gaussian, Inc.),
 the Gaussian(R) 03 system (copyright 2003, Gaussian, Inc.),
 the Gaussian(R) 98 system (copyright 1998, Gaussian, Inc.),
 the Gaussian(R) 94 system (copyright 1995, Gaussian, Inc.),
 the Gaussian 92(TM) system (copyright 1992, Gaussian, Inc.),
 the Gaussian 90(TM) system (copyright 1990, Gaussian, Inc.),
 the Gaussian 88(TM) system (copyright 1988, Gaussian, Inc.),
 the Gaussian 86(TM) system (copyright 1986, Carnegie Mellon
 University), and the Gaussian 82(TM) system (copyright 1983,
 Carnegie Mellon University). Gaussian is a federally registered
 trademark of Gaussian, Inc.
  
 This software contains proprietary and confidential information,
 including trade secrets, belonging to Gaussian, Inc.
  
 This software is provided under written license and may be
 used, copied, transmitted, or stored only in accord with that
 written license.
  
 The following legend is applicable only to US Government
 contracts under FAR:
  
                    RESTRICTED RIGHTS LEGEND
  
 Use, reproduction and disclosure by the US Government is
 subject to restrictions as set forth in subparagraphs (a)
 and (c) of the Commercial Computer Software - Restricted
 Rights clause in FAR 52.227-19.
  
 Gaussian, Inc.
 340 Quinnipiac St., Bldg. 40, Wallingford CT 06492
  
  
 ---------------------------------------------------------------
 Warning -- This program may not be used in any manner that
 competes with the business of Gaussian, Inc. or will provide
 assistance to any competitor of Gaussian, Inc.  The licensee
 of this program is prohibited from giving any competitor of
 Gaussian, Inc. access to this program.  By using this program,
 the user acknowledges that Gaussian, Inc. is engaged in the
 business of creating and licensing software in the field of
 computational chemistry and represents and warrants to the
 licensee that it is not a competitor of Gaussian, Inc. and that
 it will not use this program in any manner prohibited above.
 ---------------------------------------------------------------
  

 Cite this work as:
 Gaussian 16, Revision B.01,
 M. J. Frisch, G. W. Trucks, H. B. Schlegel, G. E. Scuseria, 
 M. A. Robb, J. R. Cheeseman, G. Scalmani, V. Barone, 
 G. A. Petersson, H. Nakatsuji, X. Li, M. Caricato, A. V. Marenich, 
 J. Bloino, B. G. Janesko, R. Gomperts, B. Mennucci, H. P. Hratchian, 
 J. V. Ortiz, A. F. Izmaylov, J. L. Sonnenberg, D. Williams-Young, 
 F. Ding, F. Lipparini, F. Egidi, J. Goings, B. Peng, A. Petrone, 
 T. Henderson, D. Ranasinghe, V. G. Zakrzewski, J. Gao, N. Rega, 
 G. Zheng, W. Liang, M. Hada, M. Ehara, K. Toyota, R. Fukuda, 
 J. Hasegawa, M. Ishida, T. Nakajima, Y. Honda, O. Kitao, H. Nakai, 
 T. Vreven, K. Throssell, J. A. Montgomery, Jr., J. E. Peralta, 
 F. Ogliaro, M. J. Bearpark, J. J. Heyd, E. N. Brothers, K. N. Kudin, 
 V. N. Staroverov, T. A. Keith, R. Kobayashi, J. Normand, 
 K. Raghavachari, A. P. Rendell, J. C. Burant, S. S. Iyengar, 
 J. Tomasi, M. Cossi, J. M. Millam, M. Klene, C. Adamo, R. Cammi, 
 J. W. Ochterski, R. L. Martin, K. Morokuma, O. Farkas, 
 J. B. Foresman, and D. J. Fox, Gaussian, Inc., Wallingford CT, 2016.
 
 ******************************************
 Gaussian 16:  ES64L-G16RevB.01 20-Dec-2017
                 6-Jan-2025 
 ******************************************
 %mem=2GB
 %nproc=2
 Will use up to    2 processors via shared memory.
 ----------------------------------------------------------------
 # m062x 6-311++G(d,p) opt=z-matrix scrf=(solvent=dichloroethane)
 ----------------------------------------------------------------
 1/10=7,18=40,26=3,38=1/1,3;
 2/12=2,17=6,18=5,29=3,40=1/2;
 3/5=4,6=6,7=1111,11=2,25=1,30=1,70=2201,71=1,72=10,74=-55/1,2,3;
 4//1;
 5/5=2,38=5,53=10/2;
 6/7=2,8=2,9=2,10=2,28=1/1;
 7/29=1/1,2,3,16;
 1/10=7,18=40,26=3/3(2);
 2/29=3/2;
 99//99;
 2/29=3/2;
 3/5=4,6=6,7=1111,11=2,25=1,30=1,70=2205,71=1,72=10,74=-55/1,2,3;
 4/5=5,16=3,69=1/1;
 5/5=2,38=5,53=10/2;
 7//1,2,3,16;
 1/18=40,26=3/3(-5);
 2/29=3/2;
 6/7=2,8=2,9=2,10=2,19=2,28=1/1;
 99/9=1/99;
 ----
 test
 ----
 Symbolic Z-matrix:
 Charge =  0 Multiplicity = 1
 C1
 C2                   1    d1
 C3                   2    d2       1     120. 
 C4                   3    d3       2     120.     1     0.       0
 C5                   4    d4       3     120.     2     0.       0
 C6                   5    d5       4     120.     3     0.       0
 F7                   1    d6       2     120.     3     180.     0
 H8                   2    d7       3     120.     4     180.     0
 H9                   3    d8       4     120.     5     180.     0
 H10                  4    d9       5     120.     6     180.     0
 H11                  5    d10      6     120.     1     180.     0
 H12                  6    d11      1     120.     2     180.     0
 O13                  7    d12      1     179.9    3     180.     0
 C14                  13   d13      1     179.9    2     180.     0
 H15                  14   d14      1     120.     2     90.      0
 H16                  14   d15      1     120.     2    -90.      0
 H17                  7    d16      1     100.     2     90.      0
 Cl18                 17   d17      7     160.     1     0.       0
 H19                  7    d18      1     100.     2    -90.      0
 Cl20                 19   d19      7     160.     1     0.       0
       Variables:
  d1                    1.3                      
  d2                    1.3                      
  d3                    1.3                      
  d4                    1.3                      
  d5                    1.3                      
  d6                    1.4                      
  d7                    1.                       
  d8                    1.                       
  d9                    1.                       
  d10                   1.                       
  d11                   1.                       
  d12                   2.8                      
  d13                   1.2                      
  d14                   1.                       
  d15                   1.                       
  d16                   2.3                      
  d17                   0.9                      
  d18                   2.3                      
  d19                   0.9                      
 

 GradGradGradGradGradGradGradGradGradGradGradGradGradGradGradGradGradGrad
 Berny optimization.
 Initialization pass.
                       ----------------------------
                       !    Initial Parameters    !
                       ! (Angstroms and Degrees)  !
 ----------------------                            ----------------------
 !      Name          Value   Derivative information (Atomic Units)     !
 ------------------------------------------------------------------------
 !       d1          1.3      estimate D2E/DX2                          !
 !       d2          1.3      estimate D2E/DX2                          !
 !       d3          1.3      estimate D2E/DX2                          !
 !       d4          1.3      estimate D2E/DX2                          !
 !       d5          1.3      estimate D2E/DX2                          !
 !       d6          1.4      estimate D2E/DX2                          !
 !       d7          1.0      estimate D2E/DX2                          !
 !       d8          1.0      estimate D2E/DX2                          !
 !       d9          1.0      estimate D2E/DX2                          !
 !       d10         1.0      estimate D2E/DX2                          !
 !       d11         1.0      estimate D2E/DX2                          !
 !       d12         2.8      estimate D2E/DX2                          !
 !       d13         1.2      estimate D2E/DX2                          !
 !       d14         1.0      estimate D2E/DX2                          !
 !       d15         1.0      estimate D2E/DX2                          !
 !       d16         2.3      estimate D2E/DX2                          !
 !       d17         0.9      estimate D2E/DX2                          !
 !       d18         2.3      estimate D2E/DX2                          !
 !       d19         0.9      estimate D2E/DX2                          !
 ------------------------------------------------------------------------
 Trust Radius=3.00D-01 FncErr=1.00D-07 GrdErr=1.00D-06 EigMax=2.50D+02 EigMin=1.00D-04
 Number of steps in this run=     29 maximum allowed number of steps=    100.
 GradGradGradGradGradGradGradGradGradGradGradGradGradGradGradGradGradGrad

 ---------------------------------------------------------------------------------------------------
                            Z-MATRIX (ANGSTROMS AND DEGREES)
   CD    Cent   Atom    N1       Length/X        N2       Alpha/Y        N3        Beta/Z          J
 ---------------------------------------------------------------------------------------------------
      1      1  C 
      2      2  C        1   1.300000(     1)
      3      3  C        2   1.300000(     2)      1  120.000(    20)
      4      4  C        3   1.300000(     3)      2  120.000(    21)      1    0.000(    38)      0
      5      5  C        4   1.300000(     4)      3  120.000(    22)      2    0.000(    39)      0
      6      6  C        5   1.300000(     5)      4  120.000(    23)      3    0.000(    40)      0
      7      7  F        1   1.400000(     6)      2  120.000(    24)      3  180.000(    41)      0
      8      8  H        2   1.000000(     7)      3  120.000(    25)      4  180.000(    42)      0
      9      9  H        3   1.000000(     8)      4  120.000(    26)      5  180.000(    43)      0
     10     10  H        4   1.000000(     9)      5  120.000(    27)      6  180.000(    44)      0
     11     11  H        5   1.000000(    10)      6  120.000(    28)      1  180.000(    45)      0
     12     12  H        6   1.000000(    11)      1  120.000(    29)      2  180.000(    46)      0
     13     13  O        7   2.800000(    12)      1  179.900(    30)      3  180.000(    47)      0
     14     14  C       13   1.200000(    13)      1  179.900(    31)      2  180.000(    48)      0
     15     15  H       14   1.000000(    14)      1  120.000(    32)      2   90.000(    49)      0
     16     16  H       14   1.000000(    15)      1  120.000(    33)      2  -90.000(    50)      0
     17     17  H        7   2.300000(    16)      1  100.000(    34)      2   90.000(    51)      0
     18     18  Cl      17   0.900000(    17)      7  160.000(    35)      1    0.000(    52)      0
     19     19  H        7   2.300000(    18)      1  100.000(    36)      2  -90.000(    53)      0
     20     20  Cl      19   0.900000(    19)      7  160.000(    37)      1    0.000(    54)      0
 ---------------------------------------------------------------------------------------------------
                         Z-Matrix orientation:                         
 ---------------------------------------------------------------------
 Center     Atomic      Atomic             Coordinates (Angstroms)
 Number     Number       Type             X           Y           Z
 ---------------------------------------------------------------------
      1          6           0        0.000000    0.000000    0.000000
      2          6           0        0.000000    0.000000    1.300000
      3          6           0        1.125833    0.000000    1.950000
      4          6           0        2.251666    0.000000    1.300000
      5          6           0        2.251666    0.000000   -0.000000
      6          6           0        1.125833    0.000000   -0.650000
      7          9           0       -1.212436   -0.000000   -0.700000
      8          1           0       -0.866025   -0.000000    1.800000
      9          1           0        1.125833   -0.000000    2.950000
     10          1           0        3.117691   -0.000000    1.800000
     11          1           0        3.117691   -0.000000   -0.500000
     12          1           0        1.125833   -0.000000   -1.650000
     13          8           0       -3.634860   -0.000000   -2.104230
     14          6           0       -4.672340   -0.000000   -2.707251
     15          1           0       -5.104965    0.866025   -2.957922
     16          1           0       -5.104965   -0.866025   -2.957922
     17          1           0       -1.558318    2.265058   -0.899695
     18         17           0       -1.422973    3.151385   -0.821554
     19          1           0       -1.558318   -2.265058   -0.899695
     20         17           0       -1.422973   -3.151385   -0.821554
 ---------------------------------------------------------------------
                    Distance matrix (angstroms):
                    1          2          3          4          5
     1  C    0.000000
     2  C    1.300000   0.000000
     3  C    2.251666   1.300000   0.000000
     4  C    2.600000   2.251666   1.300000   0.000000
     5  C    2.251666   2.600000   2.251666   1.300000   0.000000
     6  C    1.300000   2.251666   2.600000   2.251666   1.300000
     7  F    1.400000   2.338803   3.534119   4.000000   3.534119
     8  H    1.997498   1.000000   1.997498   3.157531   3.600000
     9  H    3.157531   1.997498   1.000000   1.997498   3.157531
    10  H    3.600000   3.157531   1.997498   1.000000   1.997498
    11  H    3.157531   3.600000   3.157531   1.997498   1.000000
    12  H    1.997498   3.157531   3.600000   3.157531   1.997498
    13  O    4.199999   4.980059   6.253077   6.799997   6.251317
    14  C    5.399997   6.155390   7.436988   7.999995   7.434452
    15  H    5.963218   6.703772   7.978755   8.543999   7.976172
    16  H    5.963218   6.703772   7.978755   8.543999   7.976172
    17  H    2.892800   3.521009   4.522822   4.948245   4.522822
    18  Cl   3.554016   4.056731   4.910107   5.285375   4.910107
    19  H    2.892800   3.521009   4.522822   4.948245   4.522822
    20  Cl   3.554016   4.056731   4.910107   5.285375   4.910107
                    6          7          8          9         10
     6  C    0.000000
     7  F    2.338803   0.000000
     8  H    3.157531   2.523886   0.000000
     9  H    3.600000   4.334743   2.300000   0.000000
    10  H    3.157531   5.000000   3.983717   2.300000   0.000000
    11  H    1.997498   4.334743   4.600000   3.983717   2.300000
    12  H    1.000000   2.523886   3.983717   4.600000   3.983717
    13  O    4.977849   2.800000   4.786382   6.943301   7.799997
    14  C    6.152324   3.999999   5.899436   8.100821   8.999995
    15  H    6.700697   4.582575   6.430896   8.629970   9.539387
    16  H    6.700697   4.582575   6.430896   8.629970   9.539387
    17  H    3.521009   2.300000   3.591394   5.211076   5.855246
    18  Cl   4.056731   3.160748   4.136902   5.536448   6.117303
    19  H    3.521009   2.300000   3.591394   5.211076   5.855246
    20  Cl   4.056731   3.160748   4.136902   5.536448   6.117303
                   11         12         13         14         15
    11  H    0.000000
    12  H    2.300000   0.000000
    13  O    6.940497   4.782313   0.000000
    14  C    8.096700   5.893776   1.200000   0.000000
    15  H    8.625744   6.425224   1.907878   1.000000   0.000000
    16  H    8.625744   6.425224   1.907878   1.000000   1.732051
    17  H    5.211076   3.591394   3.300517   4.253807   4.332700
    18  Cl   5.536448   4.136902   4.058193   4.903618   4.831563
    19  H    5.211076   3.591394   3.300517   4.253807   5.159329
    20  Cl   5.536448   4.136902   4.058193   4.903618   5.853266
                   16         17         18         19         20
    16  H    0.000000
    17  H    5.159329   0.000000
    18  Cl   5.853266   0.900000   0.000000
    19  H    4.332700   4.530116   5.418697   0.000000
    20  Cl   4.831563   5.418697   6.302770   0.900000   0.000000
 Stoichiometry    C7H9Cl2FO
 Framework group  CS[SG(C7H5FO),X(H4Cl2)]
 Deg. of freedom    34
 Full point group                 CS      NOp   2
 Largest Abelian subgroup         CS      NOp   2
 Largest concise Abelian subgroup CS      NOp   2
                         Standard orientation:                         
 ---------------------------------------------------------------------
 Center     Atomic      Atomic             Coordinates (Angstroms)
 Number     Number       Type             X           Y           Z
 ---------------------------------------------------------------------
      1          6           0       -0.001056   -0.924160    0.000000
      2          6           0       -1.126889   -1.574160    0.000000
      3          6           0       -1.126889   -2.874160    0.000000
      4          6           0       -0.001056   -3.524160    0.000000
      5          6           0        1.124777   -2.874160    0.000000
      6          6           0        1.124777   -1.574160    0.000000
      7          9           0       -0.001056    0.475840    0.000000
      8          1           0       -1.992914   -1.074160    0.000000
      9          1           0       -1.992914   -3.374160    0.000000
     10          1           0       -0.001056   -4.524160    0.000000
     11          1           0        1.990803   -3.374160    0.000000
     12          1           0        1.990803   -1.074160    0.000000
     13          8           0        0.003831    3.275836    0.000000
     14          6           0        0.007322    4.475831    0.000000
     15          1           0        0.008098    4.975830    0.866025
     16          1           0        0.008098    4.975830   -0.866025
     17          1           0       -0.001056    0.875231    2.265058
     18         17           0       -0.001056    0.718947    3.151385
     19          1           0       -0.001056    0.875231   -2.265058
     20         17           0       -0.001056    0.718947   -3.151385
 ---------------------------------------------------------------------
 Rotational constants (GHZ):           0.6452293           0.4842512           0.3020406
 Standard basis: 6-311++G(d,p) (5D, 7F)
 There are   228 symmetry adapted cartesian basis functions of A'  symmetry.
 There are   104 symmetry adapted cartesian basis functions of A"  symmetry.
 There are   218 symmetry adapted basis functions of A'  symmetry.
 There are   103 symmetry adapted basis functions of A"  symmetry.
   321 basis functions,   511 primitive gaussians,   332 cartesian basis functions
    51 alpha electrons       51 beta electrons
       nuclear repulsion energy       744.8802280448 Hartrees.
 NAtoms=   20 NActive=   20 NUniq=   17 SFac= 1.38D+00 NAtFMM=   60 NAOKFM=F Big=F
 Integral buffers will be    131072 words long.
 Raffenetti 2 integral format.
 Two-electron integral symmetry is turned on.
 ------------------------------------------------------------------------------
 Polarizable Continuum Model (PCM)
 =================================
 Model                : PCM.
 Atomic radii         : UFF (Universal Force Field).
 Polarization charges : Total charges.
 Charge compensation  : None.
 Solution method      : On-the-fly selection.
 Cavity type          : Scaled VdW (van der Waals Surface) (Alpha=1.100).
 Cavity algorithm     : GePol (No added spheres)
                        Default sphere list used, NSphG=   20.
                        Lebedev-Laikov grids with approx.  5.0 points / Ang**2.
                        Smoothing algorithm: York/Karplus (Gamma=1.0000).
                        Polarization charges: spherical gaussians, with
                                              point-specific exponents (IZeta= 3).
                        Self-potential: point-specific (ISelfS= 7).
                        Self-field    : sphere-specific E.n sum rule (ISelfD= 2).
 1st derivatives      : Analytical E(r).r(x)/FMM algorithm (CHGder, D1EAlg=3).
                        Cavity 1st derivative terms included.
 Solvent              : DiChloroEthane, Eps=  10.125000 Eps(inf)=   2.087447
 ------------------------------------------------------------------------------
 Spheres list:
 ISph  on   Nord     Re0    Alpha      Xe            Ye            Ze
    1   C      1    1.9255  1.100     -0.001056     -0.924160      0.000000
    2   C      2    1.9255  1.100     -1.126889     -1.574160      0.000000
    3   C      3    1.9255  1.100     -1.126889     -2.874160      0.000000
    4   C      4    1.9255  1.100     -0.001056     -3.524160      0.000000
    5   C      5    1.9255  1.100      1.124777     -2.874160      0.000000
    6   C      6    1.9255  1.100      1.124777     -1.574160      0.000000
    7   F      7    1.6820  1.100     -0.001056      0.475840      0.000000
    8   H      8    1.4430  1.100     -1.992914     -1.074160      0.000000
    9   H      9    1.4430  1.100     -1.992914     -3.374160      0.000000
   10   H     10    1.4430  1.100     -0.001056     -4.524160      0.000000
   11   H     11    1.4430  1.100      1.990803     -3.374160      0.000000
   12   H     12    1.4430  1.100      1.990803     -1.074160      0.000000
   13   O     13    1.7500  1.100      0.003831      3.275836      0.000000
   14   C     14    1.9255  1.100      0.007322      4.475831      0.000000
   15   H     15    1.4430  1.100      0.008098      4.975830      0.866025
   16   H     16    1.4430  1.100      0.008098      4.975830     -0.866025
   17   H     17    1.4430  1.100     -0.001056      0.875231      2.265058
   18  Cl     18    1.9735  1.100     -0.001056      0.718947      3.151385
   19   H     19    1.4430  1.100     -0.001056      0.875231     -2.265058
   20  Cl     20    1.9735  1.100     -0.001056      0.718947     -3.151385
 ------------------------------------------------------------------------------
 One-electron integrals computed using PRISM.
 NBasis=   321 RedAO= T EigKep=  3.67D-06  NBF=   218   103
 NBsUse=   320 1.00D-06 EigRej=  3.75D-07 NBFU=   217   103
 ExpMin= 3.60D-02 ExpMax= 1.06D+05 ExpMxC= 3.62D+03 IAcc=3 IRadAn=         5 AccDes= 0.00D+00
 Harris functional with IExCor= 1009 and IRadAn=       5 diagonalized for initial guess.
 HarFok:  IExCor= 1009 AccDes= 0.00D+00 IRadAn=         5 IDoV= 1 UseB2=F ITyADJ=14
 ICtDFT=  3500011 ScaDFX=  1.000000  1.000000  1.000000  1.000000
 FoFCou: FMM=F IPFlag=           0 FMFlag=      100000 FMFlg1=           0
         NFxFlg=           0 DoJE=T BraDBF=F KetDBF=T FulRan=T
         wScrn=  0.000000 ICntrl=       500 IOpCl=  0 I1Cent=   200000004 NGrid=           0
         NMat0=    1 NMatS0=      1 NMatT0=    0 NMatD0=    1 NMtDS0=    0 NMtDT0=    0
 Petite list used in FoFCou.
 Initial guess orbital symmetries:
       Occupied  (A") (A') (A') (A') (A') (A') (A') (A') (A') (A')
                 (A') (A") (A') (A') (A") (A') (A") (A') (A") (A')
                 (A') (A') (A") (A') (A') (A') (A') (A') (A') (A')
                 (A') (A") (A') (A') (A') (A') (A") (A') (A') (A")
                 (A') (A') (A") (A') (A") (A") (A") (A') (A") (A')
                 (A")
       Virtual   (A') (A") (A") (A') (A') (A') (A') (A') (A") (A')
                 (A") (A') (A") (A') (A') (A") (A') (A') (A") (A")
                 (A') (A') (A') (A') (A') (A") (A") (A') (A') (A')
                 (A') (A") (A') (A') (A') (A") (A") (A') (A") (A')
                 (A') (A") (A') (A') (A") (A') (A') (A") (A') (A')
                 (A') (A") (A') (A') (A') (A') (A') (A') (A') (A")
                 (A') (A') (A') (A') (A') (A") (A') (A') (A') (A')
                 (A') (A') (A") (A') (A") (A') (A') (A") (A') (A")
                 (A") (A') (A') (A') (A') (A') (A') (A') (A") (A")
                 (A") (A') (A") (A") (A') (A") (A') (A') (A') (A")
                 (A') (A") (A') (A') (A') (A') (A") (A') (A') (A')
                 (A') (A') (A") (A') (A') (A") (A') (A") (A") (A')
                 (A') (A') (A") (A") (A') (A") (A') (A') (A") (A')
                 (A') (A") (A") (A') (A") (A') (A') (A") (A') (A')
                 (A') (A") (A') (A') (A') (A') (A") (A') (A") (A")
                 (A') (A') (A") (A') (A') (A") (A') (A") (A') (A")
                 (A") (A') (A') (A") (A') (A') (A') (A') (A') (A")
                 (A") (A") (A') (A') (A") (A') (A') (A') (A") (A')
                 (A") (A') (A") (A') (A') (A") (A") (A') (A') (A')
                 (A") (A") (A') (A') (A") (A') (A') (A') (A") (A')
                 (A") (A') (A') (A") (A') (A') (A') (A") (A') (A')
                 (A") (A') (A") (A") (A') (A') (A') (A") (A') (A')
                 (A') (A') (A') (A') (A") (A') (A') (A") (A') (A')
                 (A') (A") (A') (A") (A") (A') (A') (A') (A') (A')
                 (A') (A') (A') (A') (A') (A") (A') (A") (A') (A')
                 (A') (A") (A') (A') (A') (A') (A') (A') (A') (A")
                 (A') (A") (A') (A") (A') (A') (A') (A') (A")
 The electronic state of the initial guess is 1-A'.
 Requested convergence on RMS density matrix=1.00D-08 within 128 cycles.
 Requested convergence on MAX density matrix=1.00D-06.
 Requested convergence on             energy=1.00D-06.
 No special actions if energy rises.
 Inv3:  Mode=1 IEnd=    12484800.
 Iteration    1 A*A^-1 deviation from unit magnitude is 4.00D-15 for   2024.
 Iteration    1 A*A^-1 deviation from orthogonality  is 1.79D-15 for   2037   2033.
 Iteration    1 A^-1*A deviation from unit magnitude is 4.00D-15 for   2024.
 Iteration    1 A^-1*A deviation from orthogonality  is 1.78D-15 for   2037   2033.
 Error on total polarization charges =  0.01449
 SCF Done:  E(RM062X) =  -1367.06018952     A.U. after   14 cycles
            NFock= 14  Conv=0.28D-08     -V/T= 1.9988

 **********************************************************************

            Population analysis using the SCF Density.

 **********************************************************************

 Orbital symmetries:
       Occupied  (A") (A') (A') (A') (A') (A') (A') (A') (A') (A')
                 (A') (A") (A') (A') (A") (A') (A") (A') (A") (A')
                 (A') (A") (A') (A') (A') (A') (A') (A') (A') (A')
                 (A") (A") (A') (A') (A') (A") (A') (A') (A') (A')
                 (A") (A') (A') (A') (A') (A") (A") (A') (A") (A")
                 (A")
       Virtual   (A') (A') (A') (A') (A") (A') (A") (A") (A') (A')
                 (A") (A') (A") (A') (A") (A') (A') (A") (A') (A')
                 (A") (A") (A') (A') (A') (A') (A') (A') (A") (A')
                 (A') (A") (A") (A') (A") (A') (A') (A') (A') (A")
                 (A') (A') (A') (A") (A') (A") (A') (A') (A') (A")
                 (A') (A') (A") (A') (A') (A") (A') (A') (A') (A')
                 (A') (A') (A") (A') (A') (A') (A') (A') (A') (A')
                 (A") (A") (A') (A') (A") (A') (A') (A') (A') (A')
                 (A") (A") (A') (A') (A") (A') (A") (A') (A') (A")
                 (A") (A') (A") (A') (A') (A") (A') (A") (A') (A')
                 (A") (A') (A') (A') (A') (A') (A") (A') (A') (A')
                 (A') (A') (A") (A") (A') (A') (A') (A") (A') (A')
                 (A') (A') (A") (A") (A') (A') (A') (A") (A') (A")
                 (A") (A") (A") (A') (A") (A") (A') (A') (A') (A')
                 (A') (A") (A') (A') (A") (A') (A') (A') (A') (A")
                 (A") (A') (A") (A") (A') (A') (A') (A") (A") (A')
                 (A') (A") (A') (A") (A') (A') (A') (A") (A') (A')
                 (A") (A") (A') (A') (A") (A') (A') (A') (A") (A')
                 (A') (A") (A") (A') (A') (A") (A') (A") (A') (A")
                 (A') (A") (A') (A') (A") (A') (A') (A') (A') (A")
                 (A') (A') (A') (A') (A") (A') (A') (A') (A") (A")
                 (A') (A") (A") (A") (A') (A') (A') (A") (A') (A')
                 (A') (A') (A') (A") (A') (A") (A') (A') (A') (A')
                 (A') (A") (A') (A") (A") (A') (A') (A') (A') (A')
                 (A') (A') (A') (A') (A') (A") (A') (A") (A') (A')
                 (A') (A") (A') (A') (A') (A') (A') (A') (A') (A")
                 (A') (A") (A') (A") (A') (A') (A') (A') (A")
 The electronic state is 1-A'.
 Alpha  occ. eigenvalues -- -102.64837-102.64837 -25.25438 -19.63872 -10.61569
 Alpha  occ. eigenvalues --  -10.61371 -10.52474 -10.52471 -10.52203 -10.52191
 Alpha  occ. eigenvalues --  -10.51478  -9.81329  -9.81328  -7.54048  -7.54048
 Alpha  occ. eigenvalues --   -7.52877  -7.52877  -7.52876  -7.52876  -1.36013
 Alpha  occ. eigenvalues --   -1.19068  -1.03737  -1.03705  -1.03208  -0.89381
 Alpha  occ. eigenvalues --   -0.88498  -0.74968  -0.73843  -0.72414  -0.66478
 Alpha  occ. eigenvalues --   -0.60484  -0.59608  -0.59165  -0.59061  -0.58344
 Alpha  occ. eigenvalues --   -0.56122  -0.53965  -0.53494  -0.52581  -0.50137
 Alpha  occ. eigenvalues --   -0.47856  -0.47468  -0.44515  -0.42119  -0.40828
 Alpha  occ. eigenvalues --   -0.40805  -0.40789  -0.40769  -0.35008  -0.33918
 Alpha  occ. eigenvalues --   -0.32901
 Alpha virt. eigenvalues --   -0.00496  -0.00159   0.00889   0.01486   0.01673
 Alpha virt. eigenvalues --    0.02359   0.02480   0.03205   0.03608   0.03924
 Alpha virt. eigenvalues --    0.04384   0.05241   0.06852   0.06895   0.07467
 Alpha virt. eigenvalues --    0.07568   0.07740   0.08885   0.10282   0.10821
 Alpha virt. eigenvalues --    0.11472   0.11479   0.11499   0.11936   0.12934
 Alpha virt. eigenvalues --    0.13472   0.13823   0.13910   0.14163   0.14213
 Alpha virt. eigenvalues --    0.14887   0.15165   0.16091   0.16252   0.16307
 Alpha virt. eigenvalues --    0.16473   0.17426   0.17668   0.18499   0.19177
 Alpha virt. eigenvalues --    0.20293   0.20946   0.21729   0.22511   0.22721
 Alpha virt. eigenvalues --    0.23246   0.23339   0.24092   0.25231   0.26360
 Alpha virt. eigenvalues --    0.26540   0.28754   0.28756   0.30737   0.32216
 Alpha virt. eigenvalues --    0.32707   0.32740   0.33371   0.34337   0.36273
 Alpha virt. eigenvalues --    0.36706   0.37721   0.39363   0.41161   0.41541
 Alpha virt. eigenvalues --    0.41949   0.42878   0.43487   0.45630   0.45802
 Alpha virt. eigenvalues --    0.47986   0.49933   0.50246   0.50582   0.51601
 Alpha virt. eigenvalues --    0.53241   0.54778   0.55261   0.56121   0.58530
 Alpha virt. eigenvalues --    0.58797   0.59307   0.59637   0.61089   0.61354
 Alpha virt. eigenvalues --    0.61800   0.63210   0.63787   0.65192   0.65348
 Alpha virt. eigenvalues --    0.66371   0.66894   0.69136   0.70343   0.70612
 Alpha virt. eigenvalues --    0.72067   0.73517   0.76146   0.76907   0.77439
 Alpha virt. eigenvalues --    0.78712   0.80518   0.81616   0.82242   0.85452
 Alpha virt. eigenvalues --    0.86479   0.88086   0.89325   0.90079   0.90822
 Alpha virt. eigenvalues --    0.91091   0.93198   0.93217   0.94588   0.97079
 Alpha virt. eigenvalues --    1.00935   1.01550   1.01873   1.02384   1.02676
 Alpha virt. eigenvalues --    1.06340   1.06903   1.07906   1.08285   1.11597
 Alpha virt. eigenvalues --    1.11823   1.15706   1.16103   1.17119   1.18137
 Alpha virt. eigenvalues --    1.22365   1.23953   1.25141   1.26900   1.28460
 Alpha virt. eigenvalues --    1.34001   1.34888   1.35298   1.36631   1.42963
 Alpha virt. eigenvalues --    1.52314   1.52812   1.53669   1.55631   1.59334
 Alpha virt. eigenvalues --    1.60838   1.61623   1.64652   1.65512   1.67556
 Alpha virt. eigenvalues --    1.68264   1.70040   1.71550   1.74174   1.76519
 Alpha virt. eigenvalues --    1.76789   1.79583   1.80403   1.82049   1.82453
 Alpha virt. eigenvalues --    1.85544   1.85703   1.86835   1.87954   1.90897
 Alpha virt. eigenvalues --    1.94520   1.94547   1.97348   1.99077   2.04516
 Alpha virt. eigenvalues --    2.04690   2.05637   2.06031   2.08066   2.11477
 Alpha virt. eigenvalues --    2.16179   2.17157   2.17451   2.18275   2.20039
 Alpha virt. eigenvalues --    2.21438   2.21748   2.27808   2.29680   2.31392
 Alpha virt. eigenvalues --    2.32154   2.33800   2.37196   2.37362   2.40643
 Alpha virt. eigenvalues --    2.40890   2.46549   2.48736   2.50780   2.50944
 Alpha virt. eigenvalues --    2.58614   2.65307   2.67237   2.70848   2.72599
 Alpha virt. eigenvalues --    2.75512   2.77174   2.78509   2.79977   2.80478
 Alpha virt. eigenvalues --    2.81577   2.86613   2.86726   2.88046   2.90112
 Alpha virt. eigenvalues --    2.91005   2.96459   2.98294   2.98816   3.03456
 Alpha virt. eigenvalues --    3.08806   3.11956   3.24502   3.27296   3.35301
 Alpha virt. eigenvalues --    3.39786   3.41924   3.46247   3.46916   3.55465
 Alpha virt. eigenvalues --    3.60148   3.61729   3.64906   3.75231   3.76394
 Alpha virt. eigenvalues --    3.87490   3.88413   4.00343   4.00631   4.04726
 Alpha virt. eigenvalues --    4.09559   4.14254   4.17883   4.19330   4.26108
 Alpha virt. eigenvalues --    4.26719   4.37098   4.95616   4.95632   5.11590
 Alpha virt. eigenvalues --    5.24683   5.82721   6.56731   6.62222   6.90631
 Alpha virt. eigenvalues --   10.31027  10.33726  23.73427  24.17465  24.27111
 Alpha virt. eigenvalues --   24.31678  24.54290  24.57393  24.73005  25.88381
 Alpha virt. eigenvalues --   25.94125  26.00761  26.07152  27.13306  27.14607
 Alpha virt. eigenvalues --   50.07265  66.97777 216.51816 216.56031
          Condensed to atoms (all electrons):
               1          2          3          4          5          6
     1  C   13.490141  -1.444785  -2.361790   0.110112  -2.363674  -1.457231
     2  C   -1.444785  13.834487   2.031006  -0.957228  -0.687130  -7.086341
     3  C   -2.361790   2.031006   6.609500   0.177025   0.085885  -0.686247
     4  C    0.110112  -0.957228   0.177025   7.562213   0.178687  -0.953054
     5  C   -2.363674  -0.687130   0.085885   0.178687   6.609382   2.032608
     6  C   -1.457231  -7.086341  -0.686247  -0.953054   2.032608  13.840678
     7  F    0.713505  -0.296463  -0.063482  -0.013672  -0.063980  -0.297546
     8  H   -0.136278   0.557686  -0.042798  -0.033764   0.027583  -0.042739
     9  H    0.004037  -0.025089   0.413176  -0.135953   0.008264   0.065215
    10  H    0.036943  -0.023560  -0.069367   0.514253  -0.069403  -0.023422
    11  H    0.004203   0.065217   0.008270  -0.135839   0.413192  -0.025379
    12  H   -0.136051  -0.042119   0.027710  -0.034098  -0.043017   0.557177
    13  O    0.076269  -0.023637  -0.001592  -0.002299  -0.001596  -0.023843
    14  C   -0.006375   0.001469   0.000848  -0.000151   0.000843   0.001417
    15  H   -0.000020  -0.000216  -0.000110   0.000171  -0.000111  -0.000217
    16  H   -0.000020  -0.000216  -0.000110   0.000171  -0.000111  -0.000217
    17  H    0.007848  -0.008409  -0.012259   0.027780  -0.012213  -0.009026
    18  Cl  -0.045616   0.025018   0.015502  -0.030046   0.015483   0.025745
    19  H    0.007848  -0.008409  -0.012259   0.027780  -0.012213  -0.009026
    20  Cl  -0.045616   0.025018   0.015502  -0.030046   0.015483   0.025745
               7          8          9         10         11         12
     1  C    0.713505  -0.136278   0.004037   0.036943   0.004203  -0.136051
     2  C   -0.296463   0.557686  -0.025089  -0.023560   0.065217  -0.042119
     3  C   -0.063482  -0.042798   0.413176  -0.069367   0.008270   0.027710
     4  C   -0.013672  -0.033764  -0.135953   0.514253  -0.135839  -0.034098
     5  C   -0.063980   0.027583   0.008264  -0.069403   0.413192  -0.043017
     6  C   -0.297546  -0.042739   0.065215  -0.023422  -0.025379   0.557177
     7  F    9.237588  -0.020162  -0.000275   0.001026  -0.000274  -0.020112
     8  H   -0.020162   0.496413  -0.010292  -0.000087   0.003378  -0.003119
     9  H   -0.000275  -0.010292   0.472679  -0.012276   0.001517   0.003389
    10  H    0.001026  -0.000087  -0.012276   0.480581  -0.012278  -0.000088
    11  H   -0.000274   0.003378   0.001517  -0.012278   0.472664  -0.010299
    12  H   -0.020112  -0.003119   0.003389  -0.000088  -0.010299   0.496555
    13  O   -0.000232   0.001464   0.000110  -0.000010   0.000110   0.001473
    14  C    0.000452   0.000104   0.000012   0.000001   0.000011   0.000111
    15  H   -0.000013  -0.000094  -0.000011   0.000000  -0.000011  -0.000092
    16  H   -0.000013  -0.000094  -0.000011   0.000000  -0.000011  -0.000092
    17  H    0.003710  -0.000071  -0.001301   0.000063  -0.001289  -0.000164
    18  Cl   0.003650   0.003770   0.001272  -0.000019   0.001265   0.003838
    19  H    0.003710  -0.000071  -0.001301   0.000063  -0.001289  -0.000164
    20  Cl   0.003650   0.003770   0.001272  -0.000019   0.001265   0.003838
              13         14         15         16         17         18
     1  C    0.076269  -0.006375  -0.000020  -0.000020   0.007848  -0.045616
     2  C   -0.023637   0.001469  -0.000216  -0.000216  -0.008409   0.025018
     3  C   -0.001592   0.000848  -0.000110  -0.000110  -0.012259   0.015502
     4  C   -0.002299  -0.000151   0.000171   0.000171   0.027780  -0.030046
     5  C   -0.001596   0.000843  -0.000111  -0.000111  -0.012213   0.015483
     6  C   -0.023843   0.001417  -0.000217  -0.000217  -0.009026   0.025745
     7  F   -0.000232   0.000452  -0.000013  -0.000013   0.003710   0.003650
     8  H    0.001464   0.000104  -0.000094  -0.000094  -0.000071   0.003770
     9  H    0.000110   0.000012  -0.000011  -0.000011  -0.001301   0.001272
    10  H   -0.000010   0.000001   0.000000   0.000000   0.000063  -0.000019
    11  H    0.000110   0.000011  -0.000011  -0.000011  -0.001289   0.001265
    12  H    0.001473   0.000111  -0.000092  -0.000092  -0.000164   0.003838
    13  O    8.212892   0.254958  -0.089074  -0.089074   0.004755  -0.004420
    14  C    0.254958   4.826064   0.412881   0.412881  -0.000469  -0.002940
    15  H   -0.089074   0.412881   0.678797  -0.126369  -0.001758   0.003684
    16  H   -0.089074   0.412881  -0.126369   0.678797   0.002467  -0.001467
    17  H    0.004755  -0.000469  -0.001758   0.002467   0.772837   0.099950
    18  Cl  -0.004420  -0.002940   0.003684  -0.001467   0.099950  16.998926
    19  H    0.004755  -0.000469   0.002467  -0.001758  -0.003009   0.002026
    20  Cl  -0.004420  -0.002940  -0.001467   0.003684   0.002026  -0.001205
              19         20
     1  C    0.007848  -0.045616
     2  C   -0.008409   0.025018
     3  C   -0.012259   0.015502
     4  C    0.027780  -0.030046
     5  C   -0.012213   0.015483
     6  C   -0.009026   0.025745
     7  F    0.003710   0.003650
     8  H   -0.000071   0.003770
     9  H   -0.001301   0.001272
    10  H    0.000063  -0.000019
    11  H   -0.001289   0.001265
    12  H   -0.000164   0.003838
    13  O    0.004755  -0.004420
    14  C   -0.000469  -0.002940
    15  H    0.002467  -0.001467
    16  H   -0.001758   0.003684
    17  H   -0.003009   0.002026
    18  Cl   0.002026  -0.001205
    19  H    0.772837   0.099950
    20  Cl   0.099950  16.998926
 Mulliken charges:
               1
     1  C   -0.453449
     2  C    0.063701
     3  C   -0.134411
     4  C   -0.272044
     5  C   -0.133962
     6  C    0.065704
     7  F   -0.191066
     8  H    0.195399
     9  H    0.215569
    10  H    0.177601
    11  H    0.215577
    12  H    0.195322
    13  O   -0.316590
    14  C    0.101292
    15  H    0.121564
    16  H    0.121564
    17  H    0.128531
    18  Cl  -0.114417
    19  H    0.128531
    20  Cl  -0.114417
 Sum of Mulliken charges =  -0.00000
 Mulliken charges with hydrogens summed into heavy atoms:
               1
     1  C   -0.453449
     2  C    0.259100
     3  C    0.081158
     4  C   -0.094443
     5  C    0.081616
     6  C    0.261027
     7  F   -0.191066
    13  O   -0.316590
    14  C    0.344420
    18  Cl   0.014114
    20  Cl   0.014114
 Electronic spatial extent (au):  <R**2>=           3463.4057
 Charge=             -0.0000 electrons
 Dipole moment (field-independent basis, Debye):
    X=              0.0082    Y=              0.7839    Z=              0.0000  Tot=              0.7840
 Quadrupole moment (field-independent basis, Debye-Ang):
   XX=            -72.3900   YY=            -46.2220   ZZ=            -89.7346
   XY=              0.0501   XZ=             -0.0000   YZ=              0.0000
 Traceless Quadrupole moment (field-independent basis, Debye-Ang):
   XX=             -2.9411   YY=             23.2269   ZZ=            -20.2858
   XY=              0.0501   XZ=             -0.0000   YZ=              0.0000
 Octapole moment (field-independent basis, Debye-Ang**2):
  XXX=             -0.0042  YYY=            130.2705  ZZZ=              0.0000  XYY=              0.2436
  XXY=             -2.0647  XXZ=             -0.0000  XZZ=              0.0201  YZZ=             10.8562
  YYZ=             -0.0000  XYZ=             -0.0000
 Hexadecapole moment (field-independent basis, Debye-Ang**3):
 XXXX=           -268.7713 YYYY=          -1635.1704 ZZZZ=          -1689.3282 XXXY=             -0.9589
 XXXZ=              0.0000 YYYX=              0.2667 YYYZ=              0.0000 ZZZX=              0.0000
 ZZZY=              0.0000 XXYY=           -436.3867 XXZZ=           -338.8785 YYZZ=           -719.4471
 XXYZ=              0.0000 YYXZ=              0.0000 ZZXY=             -0.3125
 N-N= 7.448802280448D+02 E-N=-4.729001882653D+03  KE= 1.368746204349D+03
 Symmetry A'   KE= 8.879567340896D+02
 Symmetry A"   KE= 4.807894702591D+02
 D1PCM: PCM CHGder 1st derivatives, ID1Alg=3 FixD1E=F DoIter=F DoCFld=F I1PDM=0.
 Calling FoFJK, ICntrl=      2127 FMM=F ISym2X=1 I1Cent= 0 IOpClX= 0 NMat=1 NMatS=1 NMatT=0.
 ***** Axes restored to original set *****
 -------------------------------------------------------------------
 Center     Atomic                   Forces (Hartrees/Bohr)
 Number     Number              X              Y              Z
 -------------------------------------------------------------------
      1        6          -0.086867851    0.000000000   -0.050150917
      2        6          -0.053823887    0.000000000    0.014989063
      3        6           0.002660262    0.000000000    0.037433451
      4        6           0.039221443    0.000000000    0.022644386
      5        6           0.033748282    0.000000000   -0.016412677
      6        6          -0.013931917   -0.000000000   -0.054107989
      7        9           0.022601957    0.000000000    0.013052490
      8        1          -0.065651242   -0.000000000    0.035982040
      9        1          -0.001707048   -0.000000000    0.073784082
     10        1           0.064280142    0.000000000    0.037112155
     11        1           0.063045397    0.000000000   -0.038370376
     12        1          -0.001664275   -0.000000000   -0.074846644
     13        8           0.016037137    0.000000000    0.009254061
     14        6           0.061100093    0.000000000    0.035606717
     15        1          -0.039145694    0.071493784   -0.022765070
     16        1          -0.039145694   -0.071493784   -0.022765070
     17        1          -0.116586733   -0.759578717   -0.067312217
     18       17           0.116208180    0.758555053    0.067092366
     19        1          -0.116586733    0.759578717   -0.067312217
     20       17           0.116208180   -0.758555053    0.067092366
 -------------------------------------------------------------------
 Cartesian Forces:  Max     0.759578717 RMS     0.201912676
 -----------------------------------------------------------------------------------------------
                       Internal Coordinate Forces (Hartree/Bohr or radian)
  Cent   Atom   N1       Length/X         N2         Alpha/Y        N3         Beta/Z          J
 -----------------------------------------------------------------------------------------------
      1  C 
      2  C        1   0.037099(     1)
      3  C        2   0.153289(     2)      1   0.160999(    20)
      4  C        3   0.221945(     3)      2   0.414622(    21)      1   0.000000(    38)     0
      5  C        4   0.184846(     4)      3   0.451443(    22)      2  -0.000000(    39)     0
      6  C        5   0.079093(     5)      4   0.253543(    23)      3  -0.000000(    40)     0
      7  F        1  -0.023890(     6)      2   0.000010(    24)      3  -0.000000(    41)     0
      8  H        2   0.074847(     7)      3   0.003145(    25)      4  -0.000000(    42)     0
      9  H        3   0.073784(     8)      4   0.003226(    26)      5  -0.000000(    43)     0
     10  H        4   0.074224(     9)      5  -0.000000(    27)      6   0.000000(    44)     0
     11  H        5   0.073784(    10)      6  -0.003226(    28)      1   0.000000(    45)     0
     12  H        6   0.074847(    11)      1  -0.003145(    29)      2  -0.000000(    46)     0
     13  O        7   0.001334(    12)      1  -0.000002(    30)      3  -0.000000(    47)     0
     14  C       13   0.019850(    13)      1   0.000105(    31)      2  -0.000000(    48)     0
     15  H       14   0.084557(    14)      1   0.006558(    32)      2   0.000118(    49)     0
     16  H       14   0.084557(    15)      1   0.006558(    33)      2  -0.000118(    50)     0
     17  H        7  -0.000932(    16)      1   0.001923(    34)      2   0.000005(    51)     0
     18  Cl      17   0.770332(    17)      7  -0.000723(    35)      1   0.000000(    52)     0
     19  H        7  -0.000932(    18)      1   0.001923(    36)      2  -0.000005(    53)     0
     20  Cl      19   0.770332(    19)      7  -0.000723(    37)      1  -0.000000(    54)     0
 -----------------------------------------------------------------------------------------------
 Internal  Forces:  Max     0.770331950 RMS     0.183095903

 GradGradGradGradGradGradGradGradGradGradGradGradGradGradGradGradGradGrad
 Berny optimization.
 Search for a local minimum.
 Step number   1 out of a maximum of   29
 All quantities printed in internal units (Hartrees-Bohrs-Radians)
 Second derivative matrix not updated -- first step.
 The second derivative matrix:
                          d1        d2        d3        d4        d5
           d1           0.95300
           d2          -0.05489   0.95300
           d3          -0.33597   0.33597   1.34386
           d4          -0.28107   0.05489   0.33597   0.95300
           d5           0.05489  -0.28107  -0.33597  -0.05489   0.95300
           d6           0.00000   0.00000   0.00000  -0.00000  -0.00000
           d7           0.00000   0.00000  -0.00000  -0.00000  -0.00000
           d8          -0.00000  -0.00000   0.00000   0.00000   0.00000
           d9           0.00000   0.00000   0.00000  -0.00000  -0.00000
           d10         -0.00000  -0.00000  -0.00000   0.00000   0.00000
           d11          0.00000  -0.00000  -0.00000  -0.00000  -0.00000
           d12          0.00000   0.00000   0.00000  -0.00000  -0.00000
           d13          0.00000   0.00000   0.00000  -0.00000  -0.00000
           d14         -0.00000  -0.00000   0.00000   0.00000   0.00000
           d15          0.00000   0.00000   0.00000  -0.00000  -0.00000
           d16         -0.00000  -0.00000  -0.00000   0.00000   0.00000
           d17         -0.00000  -0.00000   0.00000   0.00000   0.00000
           d18         -0.00000  -0.00000  -0.00000   0.00000   0.00000
           d19         -0.00000  -0.00000   0.00000   0.00000   0.00000
                          d6        d7        d8        d9        d10
           d6           0.45621
           d7          -0.00000   0.47688
           d8          -0.00000   0.00000   0.47688
           d9           0.00000  -0.00000   0.00000   0.47688
           d10          0.00000  -0.00000  -0.00000   0.00000   0.47688
           d11          0.00000  -0.00000   0.00000   0.00000   0.00000
           d12         -0.00000   0.00000  -0.00000   0.00000   0.00000
           d13         -0.00000   0.00000  -0.00000   0.00000   0.00000
           d14          0.00000   0.00000   0.00000  -0.00000  -0.00000
           d15         -0.00000  -0.00000  -0.00000   0.00000   0.00000
           d16         -0.00000  -0.00000   0.00000  -0.00000  -0.00000
           d17          0.00000   0.00000   0.00000  -0.00000  -0.00000
           d18          0.00000   0.00000   0.00000  -0.00000  -0.00000
           d19          0.00000   0.00000   0.00000  -0.00000  -0.00000
                          d11       d12       d13       d14       d15
           d11          0.47688
           d12          0.00000   0.02330
           d13          0.00000  -0.00000   1.04823
           d14         -0.00000   0.00000   0.00000   0.47688
           d15          0.00000   0.00000  -0.00000   0.00000   0.47688
           d16         -0.00000   0.00000   0.00000   0.00000   0.00000
           d17         -0.00000  -0.00000  -0.00000   0.00000  -0.00000
           d18          0.00000  -0.00000   0.00000   0.00000  -0.00000
           d19          0.00000   0.00000   0.00000  -0.00000   0.00000
                          d16       d17       d18       d19
           d16          0.02721
           d17          0.00000   1.53817
           d18          0.00000   0.00000   0.02721
           d19          0.00000  -0.00000  -0.00000   1.53817
 ITU=  0
     Eigenvalues ---    0.02330   0.02721   0.02721   0.45621   0.47688
     Eigenvalues ---    0.47688   0.47688   0.47688   0.47688   0.47688
     Eigenvalues ---    0.47688   0.67193   0.67193   0.67193   1.04823
     Eigenvalues ---    1.12429   1.53817   1.53817   2.01579
 RFO step:  Lambda=-6.46661580D-01 EMin= 2.33007068D-02
 Linear search not attempted -- first point.
 Maximum step size (   0.300) exceeded in Quadratic search.
    -- Step size scaled by   0.527
 Variable       Old X    -DE/DX   Delta X   Delta X   Delta X     New X
                                 (Linear)    (Quad)   (Total)
    d1        2.45664   0.03710   0.00000   0.03350   0.03350   2.49015
    d2        2.45664   0.15329   0.00000   0.04636   0.04636   2.50301
    d3        2.45664   0.22194   0.00000   0.05514   0.05514   2.51178
    d4        2.45664   0.18485   0.00000   0.05522   0.05522   2.51187
    d5        2.45664   0.07909   0.00000   0.04653   0.04653   2.50318
    d6        2.64562  -0.02389   0.00000  -0.01142  -0.01142   2.63420
    d7        1.88973   0.07485   0.00000   0.03511   0.03511   1.92484
    d8        1.88973   0.07378   0.00000   0.03462   0.03462   1.92434
    d9        1.88973   0.07422   0.00000   0.03482   0.03482   1.92455
   d10        1.88973   0.07378   0.00000   0.03462   0.03462   1.92434
   d11        1.88973   0.07485   0.00000   0.03511   0.03511   1.92484
   d12        5.29123   0.00133   0.00000   0.00105   0.00105   5.29228
   d13        2.26767   0.01985   0.00000   0.00617   0.00617   2.27384
   d14        1.88973   0.08456   0.00000   0.03967   0.03967   1.92940
   d15        1.88973   0.08456   0.00000   0.03967   0.03967   1.92940
   d16        4.34637  -0.00093   0.00000  -0.00073  -0.00073   4.34564
   d17        1.70075   0.77033   0.00000   0.18585   0.18585   1.88660
   d18        4.34637  -0.00093   0.00000  -0.00073  -0.00073   4.34564
   d19        1.70075   0.77033   0.00000   0.18585   0.18585   1.88660
         Item               Value     Threshold  Converged?
 Maximum Force            0.770332     0.000450     NO 
 RMS     Force            0.265989     0.000300     NO 
 Maximum Displacement     0.185850     0.001800     NO 
 RMS     Displacement     0.068825     0.001200     NO 
 Predicted change in Energy=-2.801262D-01
 GradGradGradGradGradGradGradGradGradGradGradGradGradGradGradGradGradGrad

 ---------------------------------------------------------------------------------------------------
                            Z-MATRIX (ANGSTROMS AND DEGREES)
   CD    Cent   Atom    N1       Length/X        N2       Alpha/Y        N3        Beta/Z          J
 ---------------------------------------------------------------------------------------------------
      1      1  C 
      2      2  C        1   1.317728(     1)
      3      3  C        2   1.324534(     2)      1  120.000(    20)
      4      4  C        3   1.329177(     3)      2  120.000(    21)      1    0.000(    38)      0
      5      5  C        4   1.329222(     4)      3  120.000(    22)      2    0.000(    39)      0
      6      6  C        5   1.324624(     5)      4  120.000(    23)      3    0.000(    40)      0
      7      7  F        1   1.393958(     6)      2  120.000(    24)      3  180.000(    41)      0
      8      8  H        2   1.018582(     7)      3  120.000(    25)      4  180.000(    42)      0
      9      9  H        3   1.018318(     8)      4  120.000(    26)      5  180.000(    43)      0
     10     10  H        4   1.018427(     9)      5  120.000(    27)      6  180.000(    44)      0
     11     11  H        5   1.018318(    10)      6  120.000(    28)      1  180.000(    45)      0
     12     12  H        6   1.018582(    11)      1  120.000(    29)      2  180.000(    46)      0
     13     13  O        7   2.800555(    12)      1  179.900(    30)      3  180.000(    47)      0
     14     14  C       13   1.203267(    13)      1  179.900(    31)      2  180.000(    48)      0
     15     15  H       14   1.020993(    14)      1  120.000(    32)      2   90.000(    49)      0
     16     16  H       14   1.020993(    15)      1  120.000(    33)      2  -90.000(    50)      0
     17     17  H        7   2.299614(    16)      1  100.000(    34)      2   90.000(    51)      0
     18     18  Cl      17   0.998347(    17)      7  160.000(    35)      1    0.000(    52)      0
     19     19  H        7   2.299614(    18)      1  100.000(    36)      2  -90.000(    53)      0
     20     20  Cl      19   0.998347(    19)      7  160.000(    37)      1    0.000(    54)      0
 ---------------------------------------------------------------------------------------------------
                         Z-Matrix orientation:                         
 ---------------------------------------------------------------------
 Center     Atomic      Atomic             Coordinates (Angstroms)
 Number     Number       Type             X           Y           Z
 ---------------------------------------------------------------------
      1          6           0        0.000000    0.000000    0.000000
      2          6           0        0.000000    0.000000    1.317728
      3          6           0        1.147080    0.000000    1.979995
      4          6           0        2.298181    0.000000    1.315407
      5          6           0        2.298181    0.000000   -0.013816
      6          6           0        1.151022    0.000000   -0.676128
      7          9           0       -1.207203   -0.000000   -0.696979
      8          1           0       -0.882118   -0.000000    1.827019
      9          1           0        1.147080   -0.000000    2.998313
     10          1           0        3.180165   -0.000000    1.824620
     11          1           0        3.180070   -0.000000   -0.522975
     12          1           0        1.143367   -0.000000   -1.694681
     13          8           0       -3.630107   -0.000000   -2.101487
     14          6           0       -4.670411   -0.000000   -2.706151
     15          1           0       -5.112117    0.884205   -2.962086
     16          1           0       -5.112117   -0.884205   -2.962086
     17          1           0       -1.553027    2.264678   -0.896641
     18         17           0       -1.402892    3.247858   -0.809960
     19          1           0       -1.553027   -2.264678   -0.896641
     20         17           0       -1.402892   -3.247858   -0.809960
 ---------------------------------------------------------------------
                    Distance matrix (angstroms):
                    1          2          3          4          5
     1  C    0.000000
     2  C    1.317728   0.000000
     3  C    2.288268   1.324534   0.000000
     4  C    2.648005   2.298182   1.329177   0.000000
     5  C    2.298222   2.656058   2.302241   1.329222   0.000000
     6  C    1.334916   2.302241   2.656126   2.298300   1.324624
     7  F    1.393958   2.348698   3.564945   4.041956   3.571334
     8  H    2.028825   1.018582   2.034956   3.221187   3.674639
     9  H    3.210245   2.034738   1.018318   2.038923   3.224585
    10  H    3.666427   3.220308   2.039013   1.018427   2.039054
    11  H    3.222786   3.674375   3.224578   2.038964   1.018318
    12  H    2.044317   3.222095   3.674678   3.224007   2.039339
    13  O    4.194512   4.986854   6.283313   6.842497   6.285139
    14  C    5.397777   6.164767   7.470152   8.045757   7.470606
    15  H    5.974070   6.725501   8.023935   8.601818   8.024128
    16  H    5.974070   6.725501   8.023935   8.601818   8.024128
    17  H    2.888706   3.527618   4.549107   4.985351   4.554113
    18  Cl   3.629425   4.128407   4.983451   5.363181   4.988022
    19  H    2.888706   3.527618   4.549107   4.985351   4.554113
    20  Cl   3.629425   4.128407   4.983451   5.363181   4.988022
                    6          7          8          9         10
     6  C    0.000000
     7  F    2.358317   0.000000
     8  H    3.224810   2.544847   0.000000
     9  H    3.674443   4.381533   2.342983   0.000000
    10  H    3.220428   5.060381   4.062283   2.347549   0.000000
    11  H    2.034819   4.390722   4.692956   4.066019   2.347595
    12  H    1.018582   2.553544   4.062629   4.692995   4.066205
    13  O    4.989073   2.800555   4.794227   6.987809   7.860924
    14  C    6.165232   4.003822   5.907690   8.147645   9.064184
    15  H    6.725648   4.600096   6.450600   8.688252   9.615420
    16  H    6.725648   4.600096   6.450600   8.688252   9.615420
    17  H    3.534017   2.299614   3.605164   5.252619   5.910764
    18  Cl   4.133881   3.255709   4.215857   5.617284   6.204354
    19  H    3.534017   2.299614   3.605164   5.252619   5.910764
    20  Cl   4.133881   3.255709   4.215857   5.617284   6.204354
                   11         12         13         14         15
    11  H    0.000000
    12  H    2.349692   0.000000
    13  O    6.990724   4.790777   0.000000
    14  C    8.148393   5.901109   1.203267   0.000000
    15  H    8.688581   6.443540   1.928420   1.020993   0.000000
    16  H    8.688581   6.443540   1.928420   1.020993   1.768411
    17  H    5.260285   3.610565   3.300709   4.256898   4.340379
    18  Cl   5.624454   4.220752   4.144528   4.982048   4.896616
    19  H    5.260285   3.610565   3.300709   4.256898   5.181568
    20  Cl   5.624454   4.220752   4.144528   4.982048   5.955161
                   16         17         18         19         20
    16  H    0.000000
    17  H    5.181568   0.000000
    18  Cl   5.955161   0.998347   0.000000
    19  H    4.340379   4.529356   5.515261   0.000000
    20  Cl   4.896616   5.515261   6.495716   0.998347   0.000000
 Stoichiometry    C7H9Cl2FO
 Framework group  CS[SG(C7H5FO),X(H4Cl2)]
 Deg. of freedom    34
 Full point group                 CS      NOp   2
 Largest Abelian subgroup         CS      NOp   2
 Largest concise Abelian subgroup CS      NOp   2
                         Standard orientation:                         
 ---------------------------------------------------------------------
 Center     Atomic      Atomic             Coordinates (Angstroms)
 Number     Number       Type             X           Y           Z
 ---------------------------------------------------------------------
      1          6           0       -0.004427   -0.906182   -0.000000
      2          6           0       -1.145613   -1.565046   -0.000000
      3          6           0       -1.145613   -2.889579   -0.000000
      4          6           0        0.005488   -3.554168    0.000000
      5          6           0        1.156628   -2.889557    0.000000
      6          6           0        1.156628   -1.564932    0.000000
      7          9           0       -0.004427    0.487776   -0.000000
      8          1           0       -2.027730   -1.055755   -0.000000
      9          1           0       -2.027502   -3.398738   -0.000000
     10          1           0        0.005488   -4.572595    0.000000
     11          1           0        2.038517   -3.398716    0.000000
     12          1           0        2.034893   -1.049026    0.000000
     13          8           0        0.000461    3.288327    0.000000
     14          6           0        0.003963    4.491589    0.000000
     15          1           0        0.004757    5.002084    0.884205
     16          1           0        0.004757    5.002084   -0.884205
     17          1           0       -0.004427    0.887100    2.264678
     18         17           0       -0.004427    0.713739    3.247858
     19          1           0       -0.004427    0.887100   -2.264678
     20         17           0       -0.004427    0.713739   -3.247858
 ---------------------------------------------------------------------
 Rotational constants (GHZ):           0.6089546           0.4792113           0.2931419
 Standard basis: 6-311++G(d,p) (5D, 7F)
 There are   228 symmetry adapted cartesian basis functions of A'  symmetry.
 There are   104 symmetry adapted cartesian basis functions of A"  symmetry.
 There are   218 symmetry adapted basis functions of A'  symmetry.
 There are   103 symmetry adapted basis functions of A"  symmetry.
   321 basis functions,   511 primitive gaussians,   332 cartesian basis functions
    51 alpha electrons       51 beta electrons
       nuclear repulsion energy       731.5974467456 Hartrees.
 NAtoms=   20 NActive=   20 NUniq=   17 SFac= 1.38D+00 NAtFMM=   60 NAOKFM=F Big=F
 Integral buffers will be    131072 words long.
 Raffenetti 2 integral format.
 Two-electron integral symmetry is turned on.
 ------------------------------------------------------------------------------
 Polarizable Continuum Model (PCM)
 =================================
 Model                : PCM.
 Atomic radii         : UFF (Universal Force Field).
 Polarization charges : Total charges.
 Charge compensation  : None.
 Solution method      : On-the-fly selection.
 Cavity type          : Scaled VdW (van der Waals Surface) (Alpha=1.100).
 Cavity algorithm     : GePol (No added spheres)
                        Default sphere list used, NSphG=   20.
                        Lebedev-Laikov grids with approx.  5.0 points / Ang**2.
                        Smoothing algorithm: York/Karplus (Gamma=1.0000).
                        Polarization charges: spherical gaussians, with
                                              point-specific exponents (IZeta= 3).
                        Self-potential: point-specific (ISelfS= 7).
                        Self-field    : sphere-specific E.n sum rule (ISelfD= 2).
 1st derivatives      : Analytical E(r).r(x)/FMM algorithm (CHGder, D1EAlg=3).
                        Cavity 1st derivative terms included.
 Solvent              : DiChloroEthane, Eps=  10.125000 Eps(inf)=   2.087447
 ------------------------------------------------------------------------------
 Spheres list:
 ISph  on   Nord     Re0    Alpha      Xe            Ye            Ze
    1   C      1    1.9255  1.100     -0.004427     -0.906182     -0.000000
    2   C      2    1.9255  1.100     -1.145613     -1.565046     -0.000000
    3   C      3    1.9255  1.100     -1.145613     -2.889579     -0.000000
    4   C      4    1.9255  1.100      0.005488     -3.554168      0.000000
    5   C      5    1.9255  1.100      1.156628     -2.889557      0.000000
    6   C      6    1.9255  1.100      1.156628     -1.564932      0.000000
    7   F      7    1.6820  1.100     -0.004427      0.487776     -0.000000
    8   H      8    1.4430  1.100     -2.027730     -1.055755     -0.000000
    9   H      9    1.4430  1.100     -2.027502     -3.398738     -0.000000
   10   H     10    1.4430  1.100      0.005488     -4.572595      0.000000
   11   H     11    1.4430  1.100      2.038517     -3.398716      0.000000
   12   H     12    1.4430  1.100      2.034893     -1.049026      0.000000
   13   O     13    1.7500  1.100      0.000461      3.288327      0.000000
   14   C     14    1.9255  1.100      0.003963      4.491589      0.000000
   15   H     15    1.4430  1.100      0.004757      5.002084      0.884205
   16   H     16    1.4430  1.100      0.004757      5.002084     -0.884205
   17   H     17    1.4430  1.100     -0.004427      0.887100      2.264678
   18  Cl     18    1.9735  1.100     -0.004427      0.713739      3.247858
   19   H     19    1.4430  1.100     -0.004427      0.887100     -2.264678
   20  Cl     20    1.9735  1.100     -0.004427      0.713739     -3.247858
 ------------------------------------------------------------------------------
 One-electron integrals computed using PRISM.
 NBasis=   321 RedAO= T EigKep=  4.46D-06  NBF=   218   103
 NBsUse=   320 1.00D-06 EigRej=  4.63D-07 NBFU=   217   103
 Initial guess from the checkpoint file:  "/home/lywu/software/g16/scr/Gau-5952.chk"
 B after Tr=     0.000000   -0.000000    0.000000
         Rot=    1.000000    0.000000    0.000000   -0.000762 Ang=  -0.09 deg.
 Initial guess orbital symmetries:
       Occupied  (A") (A') (A') (A') (A') (A') (A') (A') (A') (A')
                 (A') (A") (A') (A') (A") (A') (A") (A') (A") (A')
                 (A') (A") (A') (A') (A') (A') (A') (A') (A') (A')
                 (A") (A") (A') (A') (A') (A") (A') (A') (A') (A')
                 (A") (A') (A') (A') (A') (A") (A") (A') (A") (A")
                 (A")
       Virtual   (A') (A') (A') (A') (A") (A') (A") (A") (A') (A')
                 (A") (A') (A") (A') (A") (A') (A') (A") (A') (A')
                 (A") (A") (A') (A') (A') (A') (A') (A') (A") (A')
                 (A') (A") (A") (A') (A") (A') (A') (A') (A') (A")
                 (A') (A') (A') (A") (A') (A") (A') (A') (A') (A")
                 (A') (A') (A") (A') (A') (A") (A') (A') (A') (A')
                 (A') (A') (A") (A') (A') (A') (A') (A') (A') (A')
                 (A") (A") (A') (A') (A") (A') (A') (A') (A') (A')
                 (A") (A") (A') (A') (A") (A') (A") (A') (A') (A")
                 (A") (A') (A") (A') (A') (A") (A') (A") (A') (A')
                 (A") (A') (A') (A') (A') (A') (A") (A') (A') (A')
                 (A') (A') (A") (A") (A') (A') (A') (A") (A') (A')
                 (A') (A') (A") (A") (A') (A') (A') (A") (A') (A")
                 (A") (A") (A") (A') (A") (A") (A') (A') (A') (A')
                 (A') (A") (A') (A') (A") (A') (A') (A') (A') (A")
                 (A") (A') (A") (A") (A') (A') (A') (A") (A") (A')
                 (A') (A") (A') (A") (A') (A') (A') (A") (A') (A')
                 (A") (A") (A') (A') (A") (A') (A') (A') (A") (A')
                 (A') (A") (A") (A') (A') (A") (A') (A") (A') (A")
                 (A') (A") (A') (A') (A") (A') (A') (A') (A') (A")
                 (A') (A') (A') (A') (A") (A') (A') (A') (A") (A")
                 (A') (A") (A") (A") (A') (A') (A') (A") (A') (A')
                 (A') (A') (A') (A") (A') (A") (A') (A') (A') (A')
                 (A') (A") (A') (A") (A") (A') (A') (A') (A') (A')
                 (A') (A') (A') (A') (A') (A") (A') (A") (A') (A')
                 (A') (A") (A') (A') (A') (A') (A') (A') (A') (A")
                 (A') (A") (A') (A") (A') (A') (A') (A') (A")
 ExpMin= 3.60D-02 ExpMax= 1.06D+05 ExpMxC= 3.62D+03 IAcc=3 IRadAn=         5 AccDes= 0.00D+00
 Harris functional with IExCor= 1009 and IRadAn=       5 diagonalized for initial guess.
 HarFok:  IExCor= 1009 AccDes= 0.00D+00 IRadAn=         5 IDoV= 1 UseB2=F ITyADJ=14
 ICtDFT=  3500011 ScaDFX=  1.000000  1.000000  1.000000  1.000000
 FoFCou: FMM=F IPFlag=           0 FMFlag=      100000 FMFlg1=           0
         NFxFlg=           0 DoJE=T BraDBF=F KetDBF=T FulRan=T
         wScrn=  0.000000 ICntrl=       500 IOpCl=  0 I1Cent=   200000004 NGrid=           0
         NMat0=    1 NMatS0=      1 NMatT0=    0 NMatD0=    1 NMtDS0=    0 NMtDT0=    0
 Petite list used in FoFCou.
 Requested convergence on RMS density matrix=1.00D-08 within 128 cycles.
 Requested convergence on MAX density matrix=1.00D-06.
 Requested convergence on             energy=1.00D-06.
 No special actions if energy rises.
 Inv3:  Mode=1 IEnd=    13091763.
 Iteration    1 A*A^-1 deviation from unit magnitude is 4.88D-15 for   2075.
 Iteration    1 A*A^-1 deviation from orthogonality  is 2.00D-15 for   2089   1941.
 Iteration    1 A^-1*A deviation from unit magnitude is 5.11D-15 for   2075.
 Iteration    1 A^-1*A deviation from orthogonality  is 1.91D-15 for   1681    156.
 Error on total polarization charges =  0.01513
 SCF Done:  E(RM062X) =  -1367.32004402     A.U. after   13 cycles
            NFock= 13  Conv=0.32D-08     -V/T= 2.0001
 D1PCM: PCM CHGder 1st derivatives, ID1Alg=3 FixD1E=F DoIter=F DoCFld=F I1PDM=0.
 Calling FoFJK, ICntrl=      2127 FMM=F ISym2X=1 I1Cent= 0 IOpClX= 0 NMat=1 NMatS=1 NMatT=0.
 ***** Axes restored to original set *****
 -------------------------------------------------------------------
 Center     Atomic                   Forces (Hartrees/Bohr)
 Number     Number              X              Y              Z
 -------------------------------------------------------------------
      1        6          -0.048589975   -0.000000000   -0.046878934
      2        6          -0.037246848   -0.000000000    0.013408698
      3        6           0.009455595   -0.000000000    0.017451493
      4        6           0.018258469    0.000000000    0.012532798
      5        6           0.017359430   -0.000000000   -0.004233990
      6        6          -0.020271336    0.000000000   -0.028069271
      7        9           0.020972217   -0.000000000    0.012302583
      8        1          -0.048637866   -0.000000000    0.026205206
      9        1          -0.001392933    0.000000000    0.054390385
     10        1           0.047337738    0.000000000    0.027350785
     11        1           0.046458933    0.000000000   -0.028467421
     12        1          -0.001939193   -0.000000000   -0.054960914
     13        8           0.008931466    0.000000000    0.005125880
     14        6           0.049812686    0.000000000    0.029072740
     15        1          -0.029902842    0.052486150   -0.017407027
     16        1          -0.029902842   -0.052486150   -0.017407027
     17        1          -0.062957480   -0.408258760   -0.036351284
     18       17           0.062606130    0.406848952    0.036143291
     19        1          -0.062957480    0.408258760   -0.036351284
     20       17           0.062606130   -0.406848952    0.036143291
 -------------------------------------------------------------------
 Cartesian Forces:  Max     0.408258760 RMS     0.109611070
 -----------------------------------------------------------------------------------------------
                       Internal Coordinate Forces (Hartree/Bohr or radian)
  Cent   Atom   N1       Length/X         N2         Alpha/Y        N3         Beta/Z          J
 -----------------------------------------------------------------------------------------------
      1  C 
      2  C        1   0.034604(     1)
      3  C        2   0.096808(     2)      1   0.072110(    20)
      4  C        3   0.130757(     3)      2   0.223362(    21)      1   0.000000(    38)     0
      5  C        4   0.116736(     4)      3   0.253959(    22)      2  -0.000000(    39)     0
      6  C        5   0.061763(     5)      4   0.150894(    23)      3  -0.000000(    40)     0
      7  F        1  -0.022270(     6)      2  -0.000405(    24)      3  -0.000000(    41)     0
      8  H        2   0.055224(     7)      3   0.003127(    25)      4  -0.000000(    42)     0
      9  H        3   0.054390(     8)      4   0.002680(    26)      5   0.000000(    43)     0
     10  H        4   0.054671(     9)      5   0.000034(    27)      6   0.000000(    44)     0
     11  H        5   0.054468(    10)      6  -0.002740(    28)      1   0.000000(    45)     0
     12  H        6   0.054974(    11)      1  -0.002937(    29)      2  -0.000000(    46)     0
     13  O        7   0.001227(    12)      1  -0.000002(    30)      3   0.000000(    47)     0
     14  C       13   0.011525(    13)      1   0.000102(    31)      2   0.000000(    48)     0
     15  H       14   0.062754(    14)      1   0.007181(    32)      2   0.000117(    49)     0
     16  H       14   0.062754(    15)      1   0.007181(    33)      2  -0.000117(    50)     0
     17  H        7  -0.001317(    16)      1   0.001786(    34)      2   0.000023(    51)     0
     18  Cl      17   0.413221(    17)      7  -0.001025(    35)      1   0.000001(    52)     0
     19  H        7  -0.001317(    18)      1   0.001786(    36)      2  -0.000023(    53)     0
     20  Cl      19   0.413221(    19)      7  -0.001025(    37)      1  -0.000001(    54)     0
 -----------------------------------------------------------------------------------------------
 Internal  Forces:  Max     0.413221054 RMS     0.101160604

 GradGradGradGradGradGradGradGradGradGradGradGradGradGradGradGradGradGrad
 Berny optimization.
 Search for a local minimum.
 Step number   2 out of a maximum of   29
 All quantities printed in internal units (Hartrees-Bohrs-Radians)
 Update second derivatives using D2CorN and points    1    2
 DE= -2.60D-01 DEPred=-2.80D-01 R= 9.28D-01
 TightC=F SS=  1.41D+00  RLast= 3.00D-01 DXNew= 5.0454D-01 9.0000D-01
 Trust test= 9.28D-01 RLast= 3.00D-01 DXMaxT set to 5.05D-01
 The second derivative matrix:
                          d1        d2        d3        d4        d5
           d1           0.95472
           d2          -0.05265   0.95592
           d3          -0.33272   0.34024   1.34990
           d4          -0.27847   0.05828   0.34094   0.95692
           d5           0.05715  -0.27813  -0.33166  -0.05149   0.95597
           d6           0.00038   0.00057   0.00047   0.00070   0.00056
           d7           0.00143   0.00185   0.00280   0.00213   0.00186
           d8           0.00142   0.00183   0.00278   0.00211   0.00185
           d9           0.00144   0.00185   0.00281   0.00214   0.00187
           d10          0.00141   0.00181   0.00275   0.00209   0.00183
           d11          0.00148   0.00191   0.00288   0.00221   0.00193
           d12          0.00004   0.00005   0.00008   0.00006   0.00005
           d13          0.00050   0.00067   0.00091   0.00079   0.00068
           d14          0.00155   0.00199   0.00306   0.00229   0.00201
           d15          0.00155   0.00199   0.00306   0.00229   0.00201
           d16          0.00006   0.00008   0.00008   0.00010   0.00008
           d17          0.01801   0.02419   0.03200   0.02845   0.02433
           d18          0.00006   0.00008   0.00008   0.00010   0.00008
           d19          0.01801   0.02419   0.03200   0.02845   0.02433
                          d6        d7        d8        d9        d10
           d6           0.45575
           d7           0.00052   0.47801
           d8           0.00051   0.00112   0.47799
           d9           0.00051   0.00113   0.00113   0.47802
           d10          0.00051   0.00110   0.00110   0.00111   0.47796
           d11          0.00050   0.00117   0.00116   0.00118   0.00115
           d12          0.00002   0.00003   0.00003   0.00003   0.00003
           d13          0.00001   0.00046   0.00046   0.00046   0.00045
           d14          0.00061   0.00120   0.00119   0.00121   0.00117
           d15          0.00061   0.00120   0.00119   0.00121   0.00117
           d16         -0.00004   0.00007   0.00007   0.00007   0.00007
           d17         -0.00081   0.01687   0.01668   0.01683   0.01660
           d18         -0.00004   0.00007   0.00007   0.00007   0.00007
           d19         -0.00081   0.01687   0.01668   0.01683   0.01660
                          d11       d12       d13       d14       d15
           d11          0.47810
           d12          0.00003   0.02330
           d13          0.00047   0.00001   1.04836
           d14          0.00125   0.00004   0.00051   0.47815
           d15          0.00125   0.00004   0.00051   0.00127   0.47815
           d16          0.00007   0.00000   0.00001   0.00008   0.00008
           d17          0.01713   0.00050   0.00436   0.01868   0.01868
           d18          0.00007   0.00000   0.00001   0.00008   0.00008
           d19          0.01713   0.00050   0.00436   0.01868   0.01868
                          d16       d17       d18       d19
           d16          0.02721
           d17          0.00013   1.68529
           d18         -0.00000   0.00013   0.02721
           d19          0.00013   0.14711   0.00013   1.68529
 ITU=  1  0
 Linear search step of   0.600 exceeds DXMaxT=   0.505 but not scaled.
 Quartic linear search produced a step of  2.00000.
 Variable       Old X    -DE/DX   Delta X   Delta X   Delta X     New X
                                 (Linear)    (Quad)   (Total)
    d1        2.49015   0.03460   0.06700   0.00000   0.06700   2.55715
    d2        2.50301   0.09681   0.09272   0.00000   0.09272   2.59573
    d3        2.51178   0.13076   0.11027   0.00000   0.11027   2.62205
    d4        2.51187   0.11674   0.11044   0.00000   0.11044   2.62231
    d5        2.50318   0.06176   0.09307   0.00000   0.09307   2.59624
    d6        2.63420  -0.02227  -0.02284   0.00000  -0.02284   2.61136
    d7        1.92484   0.05522   0.07023   0.00000   0.07023   1.99507
    d8        1.92434   0.05439   0.06923   0.00000   0.06923   1.99357
    d9        1.92455   0.05467   0.06964   0.00000   0.06964   1.99419
   d10        1.92434   0.05447   0.06923   0.00000   0.06923   1.99357
   d11        1.92484   0.05497   0.07023   0.00000   0.07023   1.99507
   d12        5.29228   0.00123   0.00210   0.00000   0.00210   5.29438
   d13        2.27384   0.01152   0.01235   0.00000   0.01235   2.28619
   d14        1.92940   0.06275   0.07934   0.00000   0.07934   2.00874
   d15        1.92940   0.06275   0.07934   0.00000   0.07934   2.00874
   d16        4.34564  -0.00132  -0.00146   0.00000  -0.00146   4.34418
   d17        1.88660   0.41322   0.37170   0.00000   0.37170   2.25830
   d18        4.34564  -0.00132  -0.00146   0.00000  -0.00146   4.34418
   d19        1.88660   0.41322   0.37170   0.00000   0.37170   2.25830
         Item               Value     Threshold  Converged?
 Maximum Force            0.413221     0.000450     NO 
 RMS     Force            0.146917     0.000300     NO 
 Maximum Displacement     0.371699     0.001800     NO 
 RMS     Displacement     0.137649     0.001200     NO 
 Predicted change in Energy=-8.075605D-02
 GradGradGradGradGradGradGradGradGradGradGradGradGradGradGradGradGradGrad

 ---------------------------------------------------------------------------------------------------
                            Z-MATRIX (ANGSTROMS AND DEGREES)
   CD    Cent   Atom    N1       Length/X        N2       Alpha/Y        N3        Beta/Z          J
 ---------------------------------------------------------------------------------------------------
      1      1  C 
      2      2  C        1   1.353184(     1)
      3      3  C        2   1.373601(     2)      1  120.000(    20)
      4      4  C        3   1.387530(     3)      2  120.000(    21)      1    0.000(    38)      0
      5      5  C        4   1.387667(     4)      3  120.000(    22)      2    0.000(    39)      0
      6      6  C        5   1.373873(     5)      4  120.000(    23)      3    0.000(    40)      0
      7      7  F        1   1.381873(     6)      2  120.000(    24)      3  180.000(    41)      0
      8      8  H        2   1.055745(     7)      3  120.000(    25)      4  180.000(    42)      0
[...]
    13  O    7.115956   4.785104   0.000000
    14  C    8.270965   5.885724   1.204190   0.000000
    15  H    8.855029   6.472168   1.997001   1.100979   0.000000
    16  H    8.855029   6.472168   1.997001   1.100979   1.906952
    17  H    5.233903   3.458366   3.176573   4.178731   4.344041
    18  Cl   5.676217   4.231460   4.236738   5.085238   5.009638
    19  H    5.233903   3.458366   3.176573   4.178731   5.151931
    20  Cl   5.676217   4.231460   4.236738   5.085238   6.132267
                   16         17         18         19         20
    16  H    0.000000
    17  H    5.151931   0.000000
    18  Cl   6.132267   1.287690   0.000000
    19  H    4.344041   4.023021   5.295871   0.000000
    20  Cl   5.009638   5.295871   6.559275   1.287690   0.000000
 Stoichiometry    C7H9Cl2FO
 Framework group  CS[SG(C7H5FO),X(H4Cl2)]
 Deg. of freedom    34
 Full point group                 CS      NOp   2
 Largest Abelian subgroup         CS      NOp   2
 Largest concise Abelian subgroup CS      NOp   2
                         Standard orientation:                         
 ---------------------------------------------------------------------
 Center     Atomic      Atomic             Coordinates (Angstroms)
 Number     Number       Type             X           Y           Z
 ---------------------------------------------------------------------
      1          6           0       -0.004824   -0.834207   -0.000000
      2          6           0       -1.197868   -1.523011   -0.000000
      3          6           0       -1.197868   -2.905761   -0.000000
      4          6           0        0.003545   -3.599397   -0.000000
      5          6           0        1.212349   -2.901494   -0.000000
      6          6           0        1.212349   -1.501988   -0.000000
      7          9           0       -0.004824    0.527479    0.000000
      8          1           0       -2.136735   -0.980956   -0.000000
      9          1           0       -2.135432   -3.447064   -0.000000
     10          1           0        0.003545   -4.682384   -0.000000
     11          1           0        2.149848   -3.442759   -0.000000
     12          1           0        2.138503   -0.939997   -0.000000
     13          8           0        0.000086    3.340703    0.000000
     14          6           0        0.003604    4.544887    0.000000
     15          1           0        0.004466    5.095376    0.953476
     16          1           0        0.004466    5.095376   -0.953476
     17          1           0       -0.004824    0.882163    2.011510
     18         17           0       -0.004824    0.658558    3.279638
     19          1           0       -0.004824    0.882163   -2.011510
     20         17           0       -0.004824    0.658558   -3.279638
 ---------------------------------------------------------------------
 Rotational constants (GHZ):           0.5942710           0.4710095           0.2892788

 **********************************************************************

            Population analysis using the SCF Density.

 **********************************************************************

 Orbital symmetries:
       Occupied  (A") (A') (A') (A') (A') (A') (A') (A') (A') (A')
                 (A') (A") (A') (A') (A") (A') (A") (A') (A") (A')
                 (A') (A') (A") (A') (A') (A') (A') (A') (A') (A')
                 (A") (A') (A') (A") (A') (A') (A') (A") (A') (A')
                 (A') (A") (A') (A') (A') (A") (A') (A") (A") (A")
                 (A")
       Virtual   (A') (A') (A") (A') (A") (A') (A") (A') (A') (A')
                 (A") (A') (A') (A") (A") (A') (A') (A') (A") (A')
                 (A') (A") (A') (A") (A") (A') (A') (A') (A') (A')
                 (A") (A') (A") (A") (A') (A') (A') (A") (A') (A')
                 (A') (A") (A') (A') (A') (A") (A') (A") (A') (A')
                 (A') (A') (A") (A') (A') (A') (A') (A') (A") (A')
                 (A') (A') (A') (A') (A') (A") (A') (A') (A') (A')
                 (A") (A') (A") (A') (A') (A") (A') (A') (A') (A')
                 (A") (A') (A') (A") (A') (A') (A') (A") (A") (A')
                 (A') (A") (A") (A") (A') (A") (A') (A") (A') (A')
                 (A') (A') (A') (A") (A') (A') (A') (A') (A') (A")
                 (A') (A') (A') (A') (A') (A") (A") (A') (A') (A")
                 (A') (A") (A') (A') (A") (A") (A') (A') (A") (A")
                 (A') (A') (A") (A") (A") (A') (A") (A') (A') (A')
                 (A") (A') (A') (A') (A") (A') (A") (A') (A') (A")
                 (A") (A") (A') (A') (A') (A') (A') (A") (A') (A")
                 (A") (A') (A') (A") (A') (A') (A') (A") (A') (A")
                 (A") (A') (A') (A') (A") (A') (A') (A") (A') (A')
                 (A') (A') (A") (A") (A') (A") (A') (A") (A') (A")
                 (A') (A") (A') (A") (A') (A') (A") (A') (A') (A')
                 (A") (A') (A') (A') (A') (A') (A') (A') (A") (A')
                 (A') (A") (A') (A") (A') (A") (A") (A") (A') (A')
                 (A") (A') (A') (A') (A') (A') (A') (A') (A') (A")
                 (A') (A") (A') (A") (A') (A') (A") (A') (A') (A')
                 (A') (A') (A') (A') (A') (A") (A') (A') (A") (A')
                 (A') (A") (A') (A') (A') (A') (A') (A') (A') (A")
                 (A') (A") (A') (A") (A') (A') (A') (A') (A")
 The electronic state is 1-A'.
 Alpha  occ. eigenvalues -- -102.67647-102.67647 -25.28233 -19.64577 -10.64372
 Alpha  occ. eigenvalues --  -10.63912 -10.56404 -10.56267 -10.56125 -10.55995
 Alpha  occ. eigenvalues --  -10.55501  -9.81969  -9.81969  -7.54452  -7.54452
 Alpha  occ. eigenvalues --   -7.53836  -7.53836  -7.53835  -7.53835  -1.39802
 Alpha  occ. eigenvalues --   -1.19273  -0.98413  -0.93931  -0.93885  -0.86685
 Alpha  occ. eigenvalues --   -0.86292  -0.72470  -0.72230  -0.71727  -0.64558
 Alpha  occ. eigenvalues --   -0.61110  -0.59241  -0.58487  -0.58342  -0.53938
 Alpha  occ. eigenvalues --   -0.53103  -0.52620  -0.51870  -0.51022  -0.50013
 Alpha  occ. eigenvalues --   -0.47774  -0.45307  -0.44197  -0.42048  -0.39738
 Alpha  occ. eigenvalues --   -0.39727  -0.39704  -0.39702  -0.34879  -0.32781
 Alpha  occ. eigenvalues --   -0.31994
 Alpha virt. eigenvalues --   -0.00810  -0.00252   0.00117   0.00741   0.00770
 Alpha virt. eigenvalues --    0.01353   0.01942   0.02062   0.03323   0.03342
 Alpha virt. eigenvalues --    0.04138   0.05086   0.06640   0.06659   0.07414
 Alpha virt. eigenvalues --    0.07572   0.07647   0.08115   0.08956   0.10101
 Alpha virt. eigenvalues --    0.10922   0.11154   0.11394   0.11435   0.11483
 Alpha virt. eigenvalues --    0.12092   0.12666   0.12971   0.13606   0.13714
 Alpha virt. eigenvalues --    0.14010   0.14173   0.14937   0.15752   0.16109
 Alpha virt. eigenvalues --    0.16160   0.16568   0.16601   0.17228   0.17306
 Alpha virt. eigenvalues --    0.18243   0.18564   0.19125   0.20050   0.21353
 Alpha virt. eigenvalues --    0.22026   0.22775   0.23787   0.23849   0.24626
 Alpha virt. eigenvalues --    0.25648   0.25848   0.26854   0.28517   0.29654
 Alpha virt. eigenvalues --    0.30591   0.31421   0.31747   0.31886   0.32940
 Alpha virt. eigenvalues --    0.33092   0.35547   0.38312   0.38343   0.40126
 Alpha virt. eigenvalues --    0.40824   0.42094   0.42795   0.43036   0.44900
 Alpha virt. eigenvalues --    0.48059   0.48292   0.48427   0.50227   0.50557
 Alpha virt. eigenvalues --    0.52323   0.53610   0.54079   0.55021   0.55665
 Alpha virt. eigenvalues --    0.55884   0.57517   0.58016   0.59125   0.59649
 Alpha virt. eigenvalues --    0.60090   0.60296   0.60374   0.60859   0.61507
 Alpha virt. eigenvalues --    0.63355   0.64837   0.65345   0.67834   0.69626
 Alpha virt. eigenvalues --    0.70367   0.72259   0.73118   0.74164   0.75498
 Alpha virt. eigenvalues --    0.76515   0.77796   0.81162   0.81572   0.83112
 Alpha virt. eigenvalues --    0.84018   0.86944   0.88136   0.88824   0.89614
 Alpha virt. eigenvalues --    0.91011   0.91358   0.92388   0.92402   0.94022
 Alpha virt. eigenvalues --    0.94048   0.94944   0.99247   0.99753   0.99990
 Alpha virt. eigenvalues --    1.01438   1.04221   1.04970   1.05240   1.06331
 Alpha virt. eigenvalues --    1.06540   1.06814   1.08882   1.11977   1.14122
 Alpha virt. eigenvalues --    1.16280   1.16425   1.17904   1.20118   1.23387
 Alpha virt. eigenvalues --    1.27716   1.30416   1.32275   1.34005   1.43162
 Alpha virt. eigenvalues --    1.45351   1.48951   1.49061   1.49924   1.51024
 Alpha virt. eigenvalues --    1.51663   1.52330   1.55289   1.56128   1.58405
 Alpha virt. eigenvalues --    1.59945   1.60838   1.61163   1.61210   1.63806
 Alpha virt. eigenvalues --    1.68211   1.68813   1.70036   1.70963   1.72063
 Alpha virt. eigenvalues --    1.77229   1.77384   1.78143   1.79749   1.81847
 Alpha virt. eigenvalues --    1.86172   1.87583   1.90116   1.91803   1.94379
 Alpha virt. eigenvalues --    1.95410   1.96321   1.99034   1.99600   2.00923
 Alpha virt. eigenvalues --    2.04772   2.06965   2.09923   2.10158   2.17369
 Alpha virt. eigenvalues --    2.19667   2.24141   2.24987   2.28566   2.29601
 Alpha virt. eigenvalues --    2.30867   2.31362   2.33714   2.35022   2.35050
 Alpha virt. eigenvalues --    2.44089   2.44716   2.45318   2.47020   2.48465
 Alpha virt. eigenvalues --    2.48651   2.52645   2.52732   2.53680   2.62800
 Alpha virt. eigenvalues --    2.63303   2.65940   2.67236   2.70156   2.72635
 Alpha virt. eigenvalues --    2.73159   2.74813   2.75651   2.75799   2.77665
 Alpha virt. eigenvalues --    2.79543   2.84486   2.85456   2.86721   2.89741
 Alpha virt. eigenvalues --    2.94350   2.94356   2.94439   2.98000   2.99471
 Alpha virt. eigenvalues --    3.14226   3.18530   3.26365   3.38881   3.39284
 Alpha virt. eigenvalues --    3.43107   3.48508   3.52932   3.56109   3.56776
 Alpha virt. eigenvalues --    3.66828   3.74728   3.78908   3.85396   3.93211
 Alpha virt. eigenvalues --    4.02736   4.04791   4.05523   4.08979   4.15681
 Alpha virt. eigenvalues --    4.18833   4.21313   4.85484   4.93839   5.10854
 Alpha virt. eigenvalues --    5.22309   5.79918   6.59003   6.59418   6.89536
 Alpha virt. eigenvalues --    9.95908  10.01088  23.68815  23.99992  24.01777
 Alpha virt. eigenvalues --   24.05002  24.15420  24.16762  24.27247  25.88819
 Alpha virt. eigenvalues --   25.94609  26.00004  26.05238  26.19229  26.21586
 Alpha virt. eigenvalues --   50.05291  66.94508 216.05645 216.11883
          Condensed to atoms (all electrons):
               1          2          3          4          5          6
     1  C   10.056463  -0.983028  -1.396992   0.084314  -1.214769  -0.674671
     2  C   -0.983028  10.252858   1.440666  -0.549325  -0.188398  -4.139384
     3  C   -1.396992   1.440666   6.002810   0.312147  -0.030174  -0.361813
     4  C    0.084314  -0.549325   0.312147   6.340429   0.283978  -0.446416
     5  C   -1.214769  -0.188398  -0.030174   0.283978   5.874195   1.245078
     6  C   -0.674671  -4.139384  -0.361813  -0.446416   1.245078  10.214620
     7  F    0.488933  -0.244141  -0.039967  -0.003280  -0.036080  -0.237427
     8  H   -0.066086   0.443897  -0.054090  -0.014011   0.017507  -0.005091
     9  H    0.010510  -0.019501   0.371031  -0.071300   0.001886   0.026846
    10  H    0.020140  -0.009915  -0.056045   0.447726  -0.053553  -0.006893
    11  H    0.012286   0.029109   0.001580  -0.071109   0.370102  -0.023315
    12  H   -0.067700  -0.007238   0.016854  -0.012085  -0.050502   0.442562
    13  O    0.060128  -0.019549  -0.001001  -0.001059  -0.000727  -0.018956
    14  C   -0.003749   0.000987   0.000763  -0.000188   0.000810   0.002200
    15  H   -0.000630   0.000013  -0.000025   0.000058  -0.000030  -0.000024
    16  H   -0.000630   0.000013  -0.000025   0.000058  -0.000030  -0.000024
    17  H    0.079415  -0.023313  -0.026700   0.023355  -0.026566  -0.030522
    18  Cl  -0.011563   0.008530   0.011657  -0.016397   0.011720   0.012420
    19  H    0.079415  -0.023313  -0.026700   0.023355  -0.026566  -0.030522
    20  Cl  -0.011563   0.008530   0.011657  -0.016397   0.011720   0.012420
               7          8          9         10         11         12
     1  C    0.488933  -0.066086   0.010510   0.020140   0.012286  -0.067700
     2  C   -0.244141   0.443897  -0.019501  -0.009915   0.029109  -0.007238
     3  C   -0.039967  -0.054090   0.371031  -0.056045   0.001580   0.016854
     4  C   -0.003280  -0.014011  -0.071300   0.447726  -0.071109  -0.012085
     5  C   -0.036080   0.017507   0.001886  -0.053553   0.370102  -0.050502
     6  C   -0.237427  -0.005091   0.026846  -0.006893  -0.023315   0.442562
     7  F    9.219366  -0.011719  -0.000784   0.000721  -0.000884  -0.011430
     8  H   -0.011719   0.462997  -0.005322   0.000884   0.001259  -0.000477
     9  H   -0.000784  -0.005322   0.444331  -0.006105   0.000995   0.001248
    10  H    0.000721   0.000884  -0.006105   0.459832  -0.005822   0.000840
    11  H   -0.000884   0.001259   0.000995  -0.005822   0.443390  -0.004624
    12  H   -0.011430  -0.000477   0.001248   0.000840  -0.004624   0.460931
    13  O    0.003678   0.001017   0.000055   0.000001   0.000053   0.001057
    14  C   -0.000994   0.000202  -0.000000   0.000005  -0.000001   0.000226
    15  H   -0.000071  -0.000059  -0.000004  -0.000001  -0.000004  -0.000061
    16  H   -0.000071  -0.000059  -0.000004  -0.000001  -0.000004  -0.000061
    17  H   -0.009323  -0.003506  -0.000448  -0.000245  -0.000395  -0.003656
    18  Cl  -0.000508   0.001440   0.000579   0.000164   0.000546   0.001588
    19  H   -0.009323  -0.003506  -0.000448  -0.000245  -0.000395  -0.003656
    20  Cl  -0.000508   0.001440   0.000579   0.000164   0.000546   0.001588
              13         14         15         16         17         18
     1  C    0.060128  -0.003749  -0.000630  -0.000630   0.079415  -0.011563
     2  C   -0.019549   0.000987   0.000013   0.000013  -0.023313   0.008530
     3  C   -0.001001   0.000763  -0.000025  -0.000025  -0.026700   0.011657
     4  C   -0.001059  -0.000188   0.000058   0.000058   0.023355  -0.016397
     5  C   -0.000727   0.000810  -0.000030  -0.000030  -0.026566   0.011720
     6  C   -0.018956   0.002200  -0.000024  -0.000024  -0.030522   0.012420
     7  F    0.003678  -0.000994  -0.000071  -0.000071  -0.009323  -0.000508
     8  H    0.001017   0.000202  -0.000059  -0.000059  -0.003506   0.001440
     9  H    0.000055  -0.000000  -0.000004  -0.000004  -0.000448   0.000579
    10  H    0.000001   0.000005  -0.000001  -0.000001  -0.000245   0.000164
    11  H    0.000053  -0.000001  -0.000004  -0.000004  -0.000395   0.000546
    12  H    0.001057   0.000226  -0.000061  -0.000061  -0.003656   0.001588
    13  O    8.204988   0.217676  -0.088984  -0.088984   0.007541  -0.003819
    14  C    0.217676   4.945263   0.405319   0.405319  -0.005696  -0.001021
    15  H   -0.088984   0.405319   0.643106  -0.094943  -0.000512   0.001730
    16  H   -0.088984   0.405319  -0.094943   0.643106   0.001179  -0.000448
    17  H    0.007541  -0.005696  -0.000512   0.001179   0.641122   0.248307
    18  Cl  -0.003819  -0.001021   0.001730  -0.000448   0.248307  16.861033
    19  H    0.007541  -0.005696   0.001179  -0.000512   0.003390  -0.000701
    20  Cl  -0.003819  -0.001021  -0.000448   0.001730  -0.000701   0.000132
              19         20
     1  C    0.079415  -0.011563
     2  C   -0.023313   0.008530
     3  C   -0.026700   0.011657
     4  C    0.023355  -0.016397
     5  C   -0.026566   0.011720
     6  C   -0.030522   0.012420
     7  F   -0.009323  -0.000508
     8  H   -0.003506   0.001440
     9  H   -0.000448   0.000579
    10  H   -0.000245   0.000164
    11  H   -0.000395   0.000546
    12  H   -0.003656   0.001588
    13  O    0.007541  -0.003819
    14  C   -0.005696  -0.001021
    15  H    0.001179  -0.000448
    16  H   -0.000512   0.001730
    17  H    0.003390  -0.000701
    18  Cl  -0.000701   0.000132
    19  H    0.641122   0.248307
    20  Cl   0.248307  16.861033
 Mulliken charges:
               1
     1  C   -0.460222
     2  C    0.022501
     3  C   -0.175634
     4  C   -0.313852
     5  C   -0.189602
     6  C    0.018911
     7  F   -0.106187
     8  H    0.233285
     9  H    0.245858
    10  H    0.208345
    11  H    0.246688
    12  H    0.234595
    13  O   -0.276838
    14  C    0.039596
    15  H    0.134391
    16  H    0.134391
    17  H    0.127276
    18  Cl  -0.125389
    19  H    0.127276
    20  Cl  -0.125389
 Sum of Mulliken charges =  -0.00000
 Mulliken charges with hydrogens summed into heavy atoms:
               1
     1  C   -0.460222
     2  C    0.255785
     3  C    0.070224
     4  C   -0.105507
     5  C    0.057086
     6  C    0.253505
     7  F   -0.106187
    13  O   -0.276838
    14  C    0.308378
    18  Cl   0.001888
    20  Cl   0.001888
 Electronic spatial extent (au):  <R**2>=           3628.4188
 Charge=              0.0000 electrons
 Dipole moment (field-independent basis, Debye):
    X=             -0.0057    Y=              0.9664    Z=              0.0000  Tot=              0.9664
 Quadrupole moment (field-independent basis, Debye-Ang):
   XX=            -73.0757   YY=            -46.7121   ZZ=            -97.6826
   XY=              0.1500   XZ=              0.0000   YZ=             -0.0000
 Traceless Quadrupole moment (field-independent basis, Debye-Ang):
   XX=             -0.5856   YY=             25.7780   ZZ=            -25.1924
   XY=              0.1500   XZ=              0.0000   YZ=             -0.0000
 Octapole moment (field-independent basis, Debye-Ang**2):
  XXX=             -0.1016  YYY=            125.5138  ZZZ=              0.0000  XYY=             -0.1292
  XXY=             -4.9778  XXZ=              0.0000  XZZ=             -0.0780  YZZ=             12.0541
  YYZ=             -0.0000  XYZ=             -0.0000
 Hexadecapole moment (field-independent basis, Debye-Ang**3):
 XXXX=           -297.5281 YYYY=          -1666.8850 ZZZZ=          -1901.6954 XXXY=              1.0191
 XXXZ=              0.0000 YYYX=              2.0662 YYYZ=             -0.0000 ZZZX=              0.0000
 ZZZY=             -0.0000 XXYY=           -453.0567 XXZZ=           -378.5039 YYZZ=           -772.8706
 XXYZ=              0.0000 YYXZ=             -0.0000 ZZXY=              0.5310
 N-N= 7.161676485904D+02 E-N=-4.668335323899D+03  KE= 1.364015546883D+03
 Symmetry A'   KE= 8.847736938341D+02
 Symmetry A"   KE= 4.792418530487D+02
 1\1\GINC-LOCALHOST\POpt\RM062X\6-311++G(d,p)\C7H9Cl2F1O1\LYWU\06-Jan-2
 025\1\\# m062x 6-311++G(d,p) opt=z-matrix scrf=(solvent=dichloroethane
 )\\test\\0,1\C\C,1,d1\C,2,d2,1,120.\C,3,d3,2,120.,1,0.,0\C,4,d4,3,120.
 ,2,0.,0\C,5,d5,4,120.,3,0.,0\F,1,d6,2,120.,3,180.,0\H,2,d7,3,120.,4,18
 0.,0\H,3,d8,4,120.,5,180.,0\H,4,d9,5,120.,6,180.,0\H,5,d10,6,120.,1,18
 0.,0\H,6,d11,1,120.,2,180.,0\O,7,d12,1,179.9,3,180.,0\C,13,d13,1,179.9
 ,2,180.,0\H,14,d14,1,120.,2,90.,0\H,14,d15,1,120.,2,-90.,0\H,7,d16,1,1
 00.,2,90.,0\Cl,17,d17,7,160.,1,0.,0\H,7,d18,1,100.,2,-90.,0\Cl,19,d19,
 7,160.,1,0.,0\\d1=1.37760869\d2=1.38274949\d3=1.38727249\d4=1.39580671
 \d5=1.399506\d6=1.36168646\d7=1.08411018\d8=1.08260522\d9=1.0829871\d1
 0=1.0825306\d11=1.08332604\d12=2.81322767\d13=1.20418974\d14=1.1009791
 5\d15=1.10097915\d16=2.0425412\d17=1.28769\d18=2.0425412\d19=1.28769\\
 Version=ES64L-G16RevB.01\State=1-A'\HF=-1367.5416876\RMSD=1.877e-09\RM
 SF=4.017e-03\Dipole=-0.3303887,0.,-0.1881447\Quadrupole=14.1685591,-18
 .7299578,4.5613987,0.,8.5431221,0.\PG=CS [SG(C7H5F1O1),X(H4Cl2)]\\@


 KNOWLEDGE IS OF TWO KINDS:  WE KNOW A SUBJECT OURSELVES OR WE KNOW 
 WHERE WE CAN FIND INFORMATION UPON IT.

                                    -- SAMUEL JOHNSON
 Job cpu time:       0 days  1 hours 54 minutes 45.2 seconds.
 Elapsed time:       0 days  0 hours 57 minutes 29.2 seconds.
 File lengths (MBytes):  RWF=    203 Int=      0 D2E=      0 Chk=     11 Scr=      1
 Normal termination of Gaussian 16 at Mon Jan  6 19:40:15 2025.
