 Entering Gaussian System, Link 0=g16
 Input=model_H2b.gjf
 Output=model_H2b.log
 Initial command:
 /home/zjxu/prog/g16/l1.exe "/home/zjxu/zjhan/5_model/HF/vacuum/Gau-48128.inp" -scrdir="/home/zjxu/zjhan/5_model/HF/vacuum/"
 Entering Link 1 = /home/zjxu/prog/g16/l1.exe PID=     48129.
  
 Copyright (c) 1988-2017, Gaussian, Inc.  All Rights Reserved.
  
 This is part of the Gaussian(R) 16 program.  It is based on
 the Gaussian(R) 09 system (copyright 2009, Gaussian, Inc.),
 the Gaussian(R) 03 system (copyright 2003, Gaussian, Inc.),
 the Gaussian(R) 98 system (copyright 1998, Gaussian, Inc.),
 the Gaussian(R) 94 system (copyright 1995, Gaussian, Inc.),
 the Gaussian 92(TM) system (copyright 1992, Gaussian, Inc.),
 the Gaussian 90(TM) system (copyright 1990, Gaussian, Inc.),
 the Gaussian 88(TM) system (copyright 1988, Gaussian, Inc.),
 the Gaussian 86(TM) system (copyright 1986, Carnegie Mellon
 University), and the Gaussian 82(TM) system (copyright 1983,
 Carnegie Mellon University). Gaussian is a federally registered
 trademark of Gaussian, Inc.
  
 This software contains proprietary and confidential information,
 including trade secrets, belonging to Gaussian, Inc.
  
 This software is provided under written license and may be
 used, copied, transmitted, or stored only in accord with that
 written license.
  
 The following legend is applicable only to US Government
 contracts under FAR:
  
                    RESTRICTED RIGHTS LEGEND
  
 Use, reproduction and disclosure by the US Government is
 subject to restrictions as set forth in subparagraphs (a)
 and (c) of the Commercial Computer Software - Restricted
 Rights clause in FAR 52.227-19.
  
 Gaussian, Inc.
 340 Quinnipiac St., Bldg. 40, Wallingford CT 06492
  
  
 ---------------------------------------------------------------
 Warning -- This program may not be used in any manner that
 competes with the business of Gaussian, Inc. or will provide
 assistance to any competitor of Gaussian, Inc.  The licensee
 of this program is prohibited from giving any competitor of
 Gaussian, Inc. access to this program.  By using this program,
 the user acknowledges that Gaussian, Inc. is engaged in the
 business of creating and licensing software in the field of
 computational chemistry and represents and warrants to the
 licensee that it is not a competitor of Gaussian, Inc. and that
 it will not use this program in any manner prohibited above.
 ---------------------------------------------------------------
  

 Cite this work as:
 Gaussian 16, Revision B.01,
 M. J. Frisch, G. W. Trucks, H. B. Schlegel, G. E. Scuseria, 
 M. A. Robb, J. R. Cheeseman, G. Scalmani, V. Barone, 
 G. A. Petersson, H. Nakatsuji, X. Li, M. Caricato, A. V. Marenich, 
 J. Bloino, B. G. Janesko, R. Gomperts, B. Mennucci, H. P. Hratchian, 
 J. V. Ortiz, A. F. Izmaylov, J. L. Sonnenberg, D. Williams-Young, 
 F. Ding, F. Lipparini, F. Egidi, J. Goings, B. Peng, A. Petrone, 
 T. Henderson, D. Ranasinghe, V. G. Zakrzewski, J. Gao, N. Rega, 
 G. Zheng, W. Liang, M. Hada, M. Ehara, K. Toyota, R. Fukuda, 
 J. Hasegawa, M. Ishida, T. Nakajima, Y. Honda, O. Kitao, H. Nakai, 
 T. Vreven, K. Throssell, J. A. Montgomery, Jr., J. E. Peralta, 
 F. Ogliaro, M. J. Bearpark, J. J. Heyd, E. N. Brothers, K. N. Kudin, 
 V. N. Staroverov, T. A. Keith, R. Kobayashi, J. Normand, 
 K. Raghavachari, A. P. Rendell, J. C. Burant, S. S. Iyengar, 
 J. Tomasi, M. Cossi, J. M. Millam, M. Klene, C. Adamo, R. Cammi, 
 J. W. Ochterski, R. L. Martin, K. Morokuma, O. Farkas, 
 J. B. Foresman, and D. J. Fox, Gaussian, Inc., Wallingford CT, 2016.
 
 ******************************************
 Gaussian 16:  ES64L-G16RevB.01 20-Dec-2017
                28-Mar-2024 
 ******************************************
 %mem=2GB
 %nproc=2
 Will use up to    2 processors via shared memory.
 %chk=model_H2b
 ----------------------------------
 # m062x 6-311++G(d,p) opt=z-matrix
 ----------------------------------
 1/10=7,18=40,26=3,38=1/1,3;
 2/12=2,17=6,18=5,29=3,40=1/2;
 3/5=4,6=6,7=1111,11=2,25=1,30=1,71=1,74=-55/1,2,3;
 4//1;
 5/5=2,38=5/2;
 6/7=2,8=2,9=2,10=2,28=1/1;
 7/29=1/1,2,3,16;
 1/10=7,18=40,26=3/3(2);
 2/29=3/2;
 99//99;
 2/29=3/2;
 3/5=4,6=6,7=1111,11=2,25=1,30=1,71=1,74=-55/1,2,3;
 4/5=5,16=3,69=1/1;
 5/5=2,38=5/2;
 7//1,2,3,16;
 1/18=40,26=3/3(-5);
 2/29=3/2;
 6/7=2,8=2,9=2,10=2,19=2,28=1/1;
 99/9=1/99;
 ----
 test
 ----
 Symbolic Z-matrix:
 Charge =  0 Multiplicity = 1
 C1
 C2                   1    d1
 C3                   2    d2       1     120. 
 C4                   3    d3       2     120.     1     0.       0
 C5                   4    d4       3     120.     2     0.       0
 C6                   5    d5       4     120.     3     0.       0
 F7                   1    d6       2     120.     3     180.     0
 H8                   2    d7       3     120.     4     180.     0
 H9                   3    d8       4     120.     5     180.     0
 H10                  4    d9       5     120.     6     180.     0
 H11                  5    d10      6     120.     1     180.     0
 H12                  6    d11      1     120.     2     180.     0
 O13                  7    d12      1     179.9    3     180.     0
 C14                  13   d13      1     179.9    2     180.     0
 H15                  14   d14      1     120.     2     90.      0
 H16                  14   d15      1     120.     2    -90.      0
 H17                  7    d16      1     100.     2     90.      0
 F18                  17   d17      7     160.     1     0.       0
 H19                  7    d18      1     100.     2    -90.      0
 F20                  19   d19      7     160.     1     0.       0
       Variables:
  d1                    1.3                      
  d2                    1.3                      
  d3                    1.3                      
  d4                    1.3                      
  d5                    1.3                      
  d6                    1.4                      
  d7                    1.                       
  d8                    1.                       
  d9                    1.                       
  d10                   1.                       
  d11                   1.                       
  d12                   2.8                      
  d13                   1.2                      
  d14                   1.                       
  d15                   1.                       
  d16                   2.3                      
  d17                   0.9                      
  d18                   2.3                      
  d19                   0.9                      
 

 GradGradGradGradGradGradGradGradGradGradGradGradGradGradGradGradGradGrad
 Berny optimization.
 Initialization pass.
                       ----------------------------
                       !    Initial Parameters    !
                       ! (Angstroms and Degrees)  !
 ----------------------                            ----------------------
 !      Name          Value   Derivative information (Atomic Units)     !
 ------------------------------------------------------------------------
 !       d1          1.3      estimate D2E/DX2                          !
 !       d2          1.3      estimate D2E/DX2                          !
 !       d3          1.3      estimate D2E/DX2                          !
 !       d4          1.3      estimate D2E/DX2                          !
 !       d5          1.3      estimate D2E/DX2                          !
 !       d6          1.4      estimate D2E/DX2                          !
 !       d7          1.0      estimate D2E/DX2                          !
 !       d8          1.0      estimate D2E/DX2                          !
 !       d9          1.0      estimate D2E/DX2                          !
 !       d10         1.0      estimate D2E/DX2                          !
 !       d11         1.0      estimate D2E/DX2                          !
 !       d12         2.8      estimate D2E/DX2                          !
 !       d13         1.2      estimate D2E/DX2                          !
 !       d14         1.0      estimate D2E/DX2                          !
 !       d15         1.0      estimate D2E/DX2                          !
 !       d16         2.3      estimate D2E/DX2                          !
 !       d17         0.9      estimate D2E/DX2                          !
 !       d18         2.3      estimate D2E/DX2                          !
 !       d19         0.9      estimate D2E/DX2                          !
 ------------------------------------------------------------------------
 Trust Radius=3.00D-01 FncErr=1.00D-07 GrdErr=1.00D-06 EigMax=2.50D+02 EigMin=1.00D-04
 Number of steps in this run=     29 maximum allowed number of steps=    100.
 GradGradGradGradGradGradGradGradGradGradGradGradGradGradGradGradGradGrad

 ---------------------------------------------------------------------------------------------------
                            Z-MATRIX (ANGSTROMS AND DEGREES)
   CD    Cent   Atom    N1       Length/X        N2       Alpha/Y        N3        Beta/Z          J
 ---------------------------------------------------------------------------------------------------
      1      1  C 
      2      2  C        1   1.300000(     1)
      3      3  C        2   1.300000(     2)      1  120.000(    20)
      4      4  C        3   1.300000(     3)      2  120.000(    21)      1    0.000(    38)      0
      5      5  C        4   1.300000(     4)      3  120.000(    22)      2    0.000(    39)      0
      6      6  C        5   1.300000(     5)      4  120.000(    23)      3    0.000(    40)      0
      7      7  F        1   1.400000(     6)      2  120.000(    24)      3  180.000(    41)      0
      8      8  H        2   1.000000(     7)      3  120.000(    25)      4  180.000(    42)      0
      9      9  H        3   1.000000(     8)      4  120.000(    26)      5  180.000(    43)      0
     10     10  H        4   1.000000(     9)      5  120.000(    27)      6  180.000(    44)      0
     11     11  H        5   1.000000(    10)      6  120.000(    28)      1  180.000(    45)      0
     12     12  H        6   1.000000(    11)      1  120.000(    29)      2  180.000(    46)      0
     13     13  O        7   2.800000(    12)      1  179.900(    30)      3  180.000(    47)      0
     14     14  C       13   1.200000(    13)      1  179.900(    31)      2  180.000(    48)      0
     15     15  H       14   1.000000(    14)      1  120.000(    32)      2   90.000(    49)      0
     16     16  H       14   1.000000(    15)      1  120.000(    33)      2  -90.000(    50)      0
     17     17  H        7   2.300000(    16)      1  100.000(    34)      2   90.000(    51)      0
     18     18  F       17   0.900000(    17)      7  160.000(    35)      1    0.000(    52)      0
     19     19  H        7   2.300000(    18)      1  100.000(    36)      2  -90.000(    53)      0
     20     20  F       19   0.900000(    19)      7  160.000(    37)      1    0.000(    54)      0
 ---------------------------------------------------------------------------------------------------
                         Z-Matrix orientation:                         
 ---------------------------------------------------------------------
 Center     Atomic      Atomic             Coordinates (Angstroms)
 Number     Number       Type             X           Y           Z
 ---------------------------------------------------------------------
      1          6           0        0.000000    0.000000    0.000000
      2          6           0        0.000000    0.000000    1.300000
      3          6           0        1.125833    0.000000    1.950000
      4          6           0        2.251666    0.000000    1.300000
      5          6           0        2.251666    0.000000   -0.000000
      6          6           0        1.125833    0.000000   -0.650000
      7          9           0       -1.212436   -0.000000   -0.700000
      8          1           0       -0.866025   -0.000000    1.800000
      9          1           0        1.125833   -0.000000    2.950000
     10          1           0        3.117691   -0.000000    1.800000
     11          1           0        3.117691   -0.000000   -0.500000
     12          1           0        1.125833   -0.000000   -1.650000
     13          8           0       -3.634860   -0.000000   -2.104230
     14          6           0       -4.672340   -0.000000   -2.707251
     15          1           0       -5.104965    0.866025   -2.957922
     16          1           0       -5.104965   -0.866025   -2.957922
     17          1           0       -1.558318    2.265058   -0.899695
     18          9           0       -1.422973    3.151385   -0.821554
     19          1           0       -1.558318   -2.265058   -0.899695
     20          9           0       -1.422973   -3.151385   -0.821554
 ---------------------------------------------------------------------
                    Distance matrix (angstroms):
                    1          2          3          4          5
     1  C    0.000000
     2  C    1.300000   0.000000
     3  C    2.251666   1.300000   0.000000
     4  C    2.600000   2.251666   1.300000   0.000000
     5  C    2.251666   2.600000   2.251666   1.300000   0.000000
     6  C    1.300000   2.251666   2.600000   2.251666   1.300000
     7  F    1.400000   2.338803   3.534119   4.000000   3.534119
     8  H    1.997498   1.000000   1.997498   3.157531   3.600000
     9  H    3.157531   1.997498   1.000000   1.997498   3.157531
    10  H    3.600000   3.157531   1.997498   1.000000   1.997498
    11  H    3.157531   3.600000   3.157531   1.997498   1.000000
    12  H    1.997498   3.157531   3.600000   3.157531   1.997498
    13  O    4.199999   4.980059   6.253077   6.799997   6.251317
    14  C    5.399997   6.155390   7.436988   7.999995   7.434452
    15  H    5.963218   6.703772   7.978755   8.543999   7.976172
    16  H    5.963218   6.703772   7.978755   8.543999   7.976172
    17  H    2.892800   3.521009   4.522822   4.948245   4.522822
    18  F    3.554016   4.056731   4.910107   5.285375   4.910107
    19  H    2.892800   3.521009   4.522822   4.948245   4.522822
    20  F    3.554016   4.056731   4.910107   5.285375   4.910107
                    6          7          8          9         10
     6  C    0.000000
     7  F    2.338803   0.000000
     8  H    3.157531   2.523886   0.000000
     9  H    3.600000   4.334743   2.300000   0.000000
    10  H    3.157531   5.000000   3.983717   2.300000   0.000000
    11  H    1.997498   4.334743   4.600000   3.983717   2.300000
    12  H    1.000000   2.523886   3.983717   4.600000   3.983717
    13  O    4.977849   2.800000   4.786382   6.943301   7.799997
    14  C    6.152324   3.999999   5.899436   8.100821   8.999995
    15  H    6.700697   4.582575   6.430896   8.629970   9.539387
    16  H    6.700697   4.582575   6.430896   8.629970   9.539387
    17  H    3.521009   2.300000   3.591394   5.211076   5.855246
    18  F    4.056731   3.160748   4.136902   5.536448   6.117303
    19  H    3.521009   2.300000   3.591394   5.211076   5.855246
    20  F    4.056731   3.160748   4.136902   5.536448   6.117303
                   11         12         13         14         15
    11  H    0.000000
    12  H    2.300000   0.000000
    13  O    6.940497   4.782313   0.000000
    14  C    8.096700   5.893776   1.200000   0.000000
    15  H    8.625744   6.425224   1.907878   1.000000   0.000000
    16  H    8.625744   6.425224   1.907878   1.000000   1.732051
    17  H    5.211076   3.591394   3.300517   4.253807   4.332700
    18  F    5.536448   4.136902   4.058193   4.903618   4.831563
    19  H    5.211076   3.591394   3.300517   4.253807   5.159329
    20  F    5.536448   4.136902   4.058193   4.903618   5.853266
                   16         17         18         19         20
    16  H    0.000000
    17  H    5.159329   0.000000
    18  F    5.853266   0.900000   0.000000
    19  H    4.332700   4.530116   5.418697   0.000000
    20  F    4.831563   5.418697   6.302770   0.900000   0.000000
 Stoichiometry    C7H9F3O
 Framework group  CS[SG(C7H5FO),X(H4F2)]
 Deg. of freedom    34
 Full point group                 CS      NOp   2
 Largest Abelian subgroup         CS      NOp   2
 Largest concise Abelian subgroup CS      NOp   2
                         Standard orientation:                         
 ---------------------------------------------------------------------
 Center     Atomic      Atomic             Coordinates (Angstroms)
 Number     Number       Type             X           Y           Z
 ---------------------------------------------------------------------
      1          6           0       -0.001252   -0.790402   -0.000000
      2          6           0       -1.127085   -1.440402   -0.000000
      3          6           0       -1.127085   -2.740402   -0.000000
      4          6           0       -0.001252   -3.390402   -0.000000
      5          6           0        1.124581   -2.740402   -0.000000
      6          6           0        1.124581   -1.440402   -0.000000
      7          9           0       -0.001252    0.609598    0.000000
      8          1           0       -1.993110   -0.940402   -0.000000
      9          1           0       -1.993110   -3.240402   -0.000000
     10          1           0       -0.001252   -4.390402   -0.000000
     11          1           0        1.990606   -3.240402   -0.000000
     12          1           0        1.990606   -0.940402   -0.000000
     13          8           0        0.003635    3.409593    0.000000
     14          6           0        0.007126    4.609588    0.000000
     15          1           0        0.007901    5.109588    0.866025
     16          1           0        0.007901    5.109588   -0.866025
     17          1           0       -0.001252    1.008988    2.265058
     18          9           0       -0.001252    0.852705    3.151385
     19          1           0       -0.001252    1.008988   -2.265058
     20          9           0       -0.001252    0.852705   -3.151385
 ---------------------------------------------------------------------
 Rotational constants (GHZ):           1.0844055           0.4930931           0.3779130
 Standard basis: 6-311++G(d,p) (5D, 7F)
 There are   220 symmetry adapted cartesian basis functions of A'  symmetry.
 There are    96 symmetry adapted cartesian basis functions of A"  symmetry.
 There are   210 symmetry adapted basis functions of A'  symmetry.
 There are    95 symmetry adapted basis functions of A"  symmetry.
   305 basis functions,   477 primitive gaussians,   316 cartesian basis functions
    43 alpha electrons       43 beta electrons
       nuclear repulsion energy       583.9088757139 Hartrees.
 NAtoms=   20 NActive=   20 NUniq=   17 SFac= 1.38D+00 NAtFMM=   60 NAOKFM=F Big=F
 Integral buffers will be    131072 words long.
 Raffenetti 2 integral format.
 Two-electron integral symmetry is turned on.
 One-electron integrals computed using PRISM.
 NBasis=   305 RedAO= T EigKep=  3.67D-06  NBF=   210    95
 NBsUse=   304 1.00D-06 EigRej=  4.85D-07 NBFU=   209    95
 ExpMin= 3.60D-02 ExpMax= 1.14D+04 ExpMxC= 1.72D+03 IAcc=3 IRadAn=         5 AccDes= 0.00D+00
 Harris functional with IExCor= 1009 and IRadAn=       5 diagonalized for initial guess.
 HarFok:  IExCor= 1009 AccDes= 0.00D+00 IRadAn=         5 IDoV= 1 UseB2=F ITyADJ=14
 ICtDFT=  3500011 ScaDFX=  1.000000  1.000000  1.000000  1.000000
 FoFCou: FMM=F IPFlag=           0 FMFlag=      100000 FMFlg1=           0
         NFxFlg=           0 DoJE=T BraDBF=F KetDBF=T FulRan=T
         wScrn=  0.000000 ICntrl=       500 IOpCl=  0 I1Cent=   200000004 NGrid=           0
         NMat0=    1 NMatS0=      1 NMatT0=    0 NMatD0=    1 NMtDS0=    0 NMtDT0=    0
 Petite list used in FoFCou.
 Initial guess orbital symmetries:
       Occupied  (A') (A") (A') (A') (A') (A') (A') (A') (A') (A')
                 (A') (A') (A") (A') (A') (A') (A') (A') (A') (A')
                 (A') (A') (A') (A") (A") (A') (A') (A') (A') (A')
                 (A") (A') (A') (A') (A") (A') (A') (A") (A") (A')
                 (A") (A") (A")
       Virtual   (A') (A") (A") (A') (A') (A") (A') (A') (A') (A')
                 (A') (A") (A") (A') (A") (A') (A') (A') (A") (A')
                 (A') (A') (A") (A') (A') (A") (A') (A') (A") (A')
                 (A") (A') (A') (A') (A') (A') (A") (A') (A") (A')
                 (A") (A') (A') (A') (A') (A') (A') (A') (A") (A')
                 (A') (A") (A') (A') (A") (A') (A') (A') (A') (A")
                 (A') (A') (A') (A') (A') (A') (A') (A") (A') (A")
                 (A') (A') (A') (A') (A") (A") (A') (A") (A') (A')
                 (A') (A') (A') (A") (A") (A") (A') (A") (A') (A')
                 (A") (A') (A') (A') (A') (A') (A") (A') (A') (A')
                 (A') (A') (A') (A') (A") (A") (A') (A") (A') (A')
                 (A") (A") (A') (A') (A") (A') (A") (A') (A") (A')
                 (A') (A") (A') (A') (A") (A') (A") (A') (A') (A")
                 (A') (A") (A') (A') (A") (A') (A') (A') (A") (A")
                 (A') (A") (A') (A') (A') (A") (A") (A') (A") (A')
                 (A') (A") (A') (A') (A') (A") (A') (A') (A') (A")
                 (A") (A") (A') (A') (A") (A') (A') (A') (A") (A')
                 (A') (A") (A") (A') (A') (A") (A') (A') (A") (A')
                 (A") (A') (A') (A") (A') (A') (A') (A") (A") (A')
                 (A') (A') (A") (A') (A') (A') (A") (A') (A") (A")
                 (A') (A') (A') (A") (A') (A') (A') (A') (A') (A')
                 (A') (A") (A') (A') (A') (A") (A") (A') (A') (A")
                 (A') (A") (A") (A') (A") (A') (A') (A") (A') (A')
                 (A') (A') (A') (A') (A") (A') (A') (A') (A') (A")
                 (A') (A") (A') (A") (A') (A") (A') (A') (A") (A')
                 (A') (A') (A') (A') (A') (A') (A') (A') (A") (A')
                 (A')
 The electronic state of the initial guess is 1-A'.
 Requested convergence on RMS density matrix=1.00D-08 within 128 cycles.
 Requested convergence on MAX density matrix=1.00D-06.
 Requested convergence on             energy=1.00D-06.
 No special actions if energy rises.
 SCF Done:  E(RM062X) =  -646.730651334     A.U. after   14 cycles
            NFock= 14  Conv=0.33D-08     -V/T= 1.9990

 **********************************************************************

            Population analysis using the SCF Density.

 **********************************************************************

 Orbital symmetries:
       Occupied  (A') (A') (A") (A') (A') (A') (A') (A') (A') (A')
                 (A') (A') (A") (A') (A') (A') (A') (A') (A') (A')
                 (A') (A') (A") (A') (A") (A') (A') (A") (A') (A')
                 (A') (A') (A') (A") (A') (A") (A") (A') (A') (A')
                 (A") (A") (A")
       Virtual   (A') (A') (A') (A') (A') (A") (A") (A") (A') (A')
                 (A") (A') (A') (A') (A") (A") (A') (A') (A') (A")
                 (A') (A') (A') (A') (A') (A") (A") (A') (A") (A')
                 (A") (A') (A') (A') (A') (A') (A') (A") (A') (A')
                 (A') (A") (A") (A') (A') (A') (A") (A') (A") (A')
                 (A') (A') (A') (A") (A') (A') (A') (A') (A") (A')
                 (A') (A') (A') (A') (A') (A") (A') (A') (A') (A")
                 (A') (A') (A") (A') (A") (A') (A') (A") (A') (A')
                 (A') (A') (A") (A") (A") (A') (A") (A') (A') (A")
                 (A') (A') (A") (A') (A') (A') (A') (A') (A') (A')
                 (A') (A') (A') (A') (A') (A") (A') (A') (A") (A")
                 (A') (A') (A") (A') (A") (A") (A') (A") (A") (A')
                 (A") (A') (A') (A') (A") (A') (A") (A') (A") (A')
                 (A') (A") (A') (A') (A") (A") (A') (A') (A') (A')
                 (A') (A") (A") (A') (A") (A") (A') (A') (A") (A')
                 (A') (A') (A") (A') (A') (A") (A') (A") (A') (A')
                 (A") (A") (A') (A') (A") (A') (A') (A') (A') (A')
                 (A") (A") (A") (A') (A') (A") (A') (A') (A") (A")
                 (A') (A') (A') (A') (A') (A") (A') (A') (A') (A")
                 (A') (A') (A') (A') (A") (A") (A') (A") (A") (A")
                 (A') (A') (A') (A") (A') (A') (A') (A') (A') (A")
                 (A') (A') (A') (A') (A') (A") (A") (A") (A') (A')
                 (A') (A") (A") (A') (A') (A") (A') (A') (A") (A')
                 (A') (A') (A') (A') (A") (A') (A') (A') (A') (A")
                 (A') (A") (A') (A") (A') (A") (A') (A') (A") (A')
                 (A') (A') (A') (A') (A') (A') (A') (A') (A") (A')
                 (A')
 The electronic state is 1-A'.
 Alpha  occ. eigenvalues --  -25.26468 -25.21534 -25.21534 -19.64773 -10.62601
 Alpha  occ. eigenvalues --  -10.62080 -10.53225 -10.53222 -10.52975 -10.52963
 Alpha  occ. eigenvalues --  -10.52263  -1.36973  -1.33365  -1.33354  -1.19845
 Alpha  occ. eigenvalues --   -1.03900  -0.90128  -0.89244  -0.76274  -0.74639
 Alpha  occ. eigenvalues --   -0.73228  -0.67319  -0.63375  -0.62991  -0.61597
 Alpha  occ. eigenvalues --   -0.59977  -0.59642  -0.57702  -0.54788  -0.54267
 Alpha  occ. eigenvalues --   -0.53412  -0.51001  -0.50013  -0.50006  -0.49999
 Alpha  occ. eigenvalues --   -0.49990  -0.48527  -0.48188  -0.45364  -0.42954
 Alpha  occ. eigenvalues --   -0.35867  -0.34549  -0.33602
 Alpha virt. eigenvalues --   -0.01672  -0.00555   0.00066   0.00987   0.01509
 Alpha virt. eigenvalues --    0.01755   0.01860   0.02719   0.03118   0.03296
 Alpha virt. eigenvalues --    0.04390   0.05893   0.06560   0.07080   0.07535
 Alpha virt. eigenvalues --    0.08911   0.09350   0.10536   0.10960   0.11487
 Alpha virt. eigenvalues --    0.12040   0.12393   0.12965   0.13088   0.13603
 Alpha virt. eigenvalues --    0.14095   0.14173   0.14479   0.14865   0.15587
 Alpha virt. eigenvalues --    0.16273   0.16582   0.17259   0.17879   0.18879
 Alpha virt. eigenvalues --    0.20317   0.20457   0.21126   0.21673   0.21785
 Alpha virt. eigenvalues --    0.22836   0.24362   0.25618   0.26081   0.27698
 Alpha virt. eigenvalues --    0.29201   0.29312   0.30553   0.31262   0.31356
 Alpha virt. eigenvalues --    0.32275   0.33115   0.33871   0.33945   0.33978
 Alpha virt. eigenvalues --    0.34628   0.36291   0.36338   0.36604   0.38228
 Alpha virt. eigenvalues --    0.39752   0.40840   0.42341   0.42759   0.44002
 Alpha virt. eigenvalues --    0.44657   0.45569   0.45577   0.50792   0.52310
 Alpha virt. eigenvalues --    0.54135   0.54439   0.56065   0.56982   0.58189
 Alpha virt. eigenvalues --    0.58459   0.58513   0.59498   0.59939   0.61622
 Alpha virt. eigenvalues --    0.63691   0.64468   0.65057   0.65134   0.65709
 Alpha virt. eigenvalues --    0.66225   0.67932   0.69410   0.71142   0.74258
 Alpha virt. eigenvalues --    0.74597   0.74998   0.79193   0.80552   0.80767
 Alpha virt. eigenvalues --    0.83248   0.84787   0.85216   0.88676   0.89153
 Alpha virt. eigenvalues --    0.93594   0.96465   0.99256   1.00780   1.01745
 Alpha virt. eigenvalues --    1.02344   1.04984   1.05939   1.06835   1.07171
 Alpha virt. eigenvalues --    1.10896   1.11654   1.15339   1.16511   1.18802
 Alpha virt. eigenvalues --    1.22643   1.22889   1.23105   1.27018   1.32855
 Alpha virt. eigenvalues --    1.33700   1.33767   1.34288   1.36479   1.37750
 Alpha virt. eigenvalues --    1.37858   1.40111   1.45534   1.46716   1.50603
 Alpha virt. eigenvalues --    1.51037   1.51603   1.51862   1.52371   1.55391
 Alpha virt. eigenvalues --    1.59253   1.60826   1.63261   1.63826   1.64794
 Alpha virt. eigenvalues --    1.66193   1.66765   1.67456   1.71182   1.72282
 Alpha virt. eigenvalues --    1.72789   1.75699   1.75879   1.81205   1.81896
 Alpha virt. eigenvalues --    1.83881   1.84276   1.84852   1.89605   1.93444
 Alpha virt. eigenvalues --    1.94326   1.95326   1.95940   1.99035   2.03447
 Alpha virt. eigenvalues --    2.03891   2.04888   2.04944   2.05825   2.11392
 Alpha virt. eigenvalues --    2.15281   2.16649   2.17515   2.18183   2.18792
 Alpha virt. eigenvalues --    2.21027   2.24178   2.35261   2.38566   2.39917
 Alpha virt. eigenvalues --    2.45639   2.47523   2.49887   2.50198   2.55199
 Alpha virt. eigenvalues --    2.56562   2.57784   2.64231   2.65812   2.69973
 Alpha virt. eigenvalues --    2.72221   2.73942   2.75948   2.77332   2.78153
 Alpha virt. eigenvalues --    2.78868   2.80658   2.85520   2.85885   2.86840
 Alpha virt. eigenvalues --    2.89286   2.89962   2.95762   2.97787   2.98059
 Alpha virt. eigenvalues --    3.02905   3.07810   3.10998   3.24006   3.26464
 Alpha virt. eigenvalues --    3.34607   3.39049   3.41138   3.54314   3.59313
 Alpha virt. eigenvalues --    3.60869   3.64022   3.74353   3.75334   3.86255
 Alpha virt. eigenvalues --    3.87419   3.90312   3.90420   3.90509   3.90573
 Alpha virt. eigenvalues --    3.99024   3.99348   4.03657   4.07864   4.13255
 Alpha virt. eigenvalues --    4.16280   4.16524   4.17486   4.17944   4.18482
 Alpha virt. eigenvalues --    4.19714   4.25323   4.26290   4.36047   4.93221
 Alpha virt. eigenvalues --    4.93571   4.94763   4.94914   5.10809   5.23923
 Alpha virt. eigenvalues --    5.81722   6.42504   6.43465   6.45776   6.46593
 Alpha virt. eigenvalues --    6.55809   6.61301   6.85304   6.87559   6.89787
 Alpha virt. eigenvalues --   23.72599  24.16326  24.26245  24.30888  24.53552
 Alpha virt. eigenvalues --   24.56630  24.72154  50.06412  66.92325  66.93200
 Alpha virt. eigenvalues --   66.96407
          Condensed to atoms (all electrons):
               1          2          3          4          5          6
     1  C   17.874544  -1.733156  -3.731595  -0.865805  -3.734403  -1.739160
     2  C   -1.733156  17.616001   3.148137  -1.212979  -1.980037 -10.142904
     3  C   -3.731595   3.148137   8.526982   0.741334  -0.847595  -1.983817
     4  C   -0.865805  -1.212979   0.741334   7.731306   0.745705  -1.203058
     5  C   -3.734403  -1.980037  -0.847595   0.745705   8.527442   3.143157
     6  C   -1.739160 -10.142904  -1.983817  -1.203058   3.143157  17.620632
     7  F    0.661213  -0.297138  -0.064532   0.022290  -0.064613  -0.297408
     8  H   -0.112740   0.573089  -0.094140  -0.037645   0.037373  -0.039905
     9  H   -0.034177  -0.048143   0.465861  -0.121408   0.002689   0.067759
    10  H    0.054493  -0.030626  -0.082998   0.527365  -0.083037  -0.030451
    11  H   -0.034028   0.067887   0.002720  -0.121408   0.465903  -0.048493
    12  H   -0.111374  -0.038403   0.037599  -0.038019  -0.095249   0.571462
    13  O    0.066216  -0.020068  -0.001175  -0.001239  -0.001144  -0.020030
    14  C   -0.001366  -0.001290   0.000027   0.000028  -0.000005  -0.001558
    15  H   -0.000346   0.000203   0.000049  -0.000067   0.000048   0.000198
    16  H   -0.000346   0.000203   0.000049  -0.000067   0.000048   0.000198
    17  H    0.011522  -0.001905  -0.000388  -0.002441  -0.000334  -0.001780
    18  F    0.144606  -0.039234  -0.026072   0.008529  -0.026065  -0.039317
    19  H    0.011522  -0.001905  -0.000388  -0.002441  -0.000334  -0.001780
    20  F    0.144606  -0.039234  -0.026072   0.008529  -0.026065  -0.039317
               7          8          9         10         11         12
     1  C    0.661213  -0.112740  -0.034177   0.054493  -0.034028  -0.111374
     2  C   -0.297138   0.573089  -0.048143  -0.030626   0.067887  -0.038403
     3  C   -0.064532  -0.094140   0.465861  -0.082998   0.002720   0.037599
     4  C    0.022290  -0.037645  -0.121408   0.527365  -0.121408  -0.038019
     5  C   -0.064613   0.037373   0.002689  -0.083037   0.465903  -0.095249
     6  C   -0.297408  -0.039905   0.067759  -0.030451  -0.048493   0.571462
     7  F    9.230314  -0.022931  -0.001403   0.001394  -0.001397  -0.022867
     8  H   -0.022931   0.518352  -0.011873   0.000025   0.003463   0.000744
     9  H   -0.001403  -0.011873   0.504899  -0.016524   0.000911   0.003468
    10  H    0.001394   0.000025  -0.016524   0.512096  -0.016527   0.000026
    11  H   -0.001397   0.003463   0.000911  -0.016527   0.504914  -0.011898
    12  H   -0.022867   0.000744   0.003468   0.000026  -0.011898   0.518410
    13  O    0.000741   0.002059   0.000054  -0.000007   0.000055   0.002062
    14  C    0.002365  -0.000287   0.000006   0.000001   0.000006  -0.000284
    15  H   -0.000392  -0.000001   0.000005  -0.000001   0.000005  -0.000001
    16  H   -0.000392  -0.000001   0.000005  -0.000001   0.000005  -0.000001
    17  H    0.012851  -0.000544   0.000140  -0.000079   0.000141  -0.000545
    18  F   -0.008113   0.000204  -0.000891   0.000249  -0.000891   0.000213
    19  H    0.012851  -0.000544   0.000140  -0.000079   0.000141  -0.000545
    20  F   -0.008113   0.000204  -0.000891   0.000249  -0.000891   0.000213
              13         14         15         16         17         18
     1  C    0.066216  -0.001366  -0.000346  -0.000346   0.011522   0.144606
     2  C   -0.020068  -0.001290   0.000203   0.000203  -0.001905  -0.039234
     3  C   -0.001175   0.000027   0.000049   0.000049  -0.000388  -0.026072
     4  C   -0.001239   0.000028  -0.000067  -0.000067  -0.002441   0.008529
     5  C   -0.001144  -0.000005   0.000048   0.000048  -0.000334  -0.026065
     6  C   -0.020030  -0.001558   0.000198   0.000198  -0.001780  -0.039317
     7  F    0.000741   0.002365  -0.000392  -0.000392   0.012851  -0.008113
     8  H    0.002059  -0.000287  -0.000001  -0.000001  -0.000544   0.000204
     9  H    0.000054   0.000006   0.000005   0.000005   0.000140  -0.000891
    10  H   -0.000007   0.000001  -0.000001  -0.000001  -0.000079   0.000249
    11  H    0.000055   0.000006   0.000005   0.000005   0.000141  -0.000891
    12  H    0.002062  -0.000284  -0.000001  -0.000001  -0.000545   0.000213
    13  O    8.133879   0.289209  -0.089966  -0.089966   0.002336  -0.001919
    14  C    0.289209   4.832119   0.402035   0.402035   0.001840  -0.000636
    15  H   -0.089966   0.402035   0.732060  -0.155833  -0.001047   0.000534
    16  H   -0.089966   0.402035  -0.155833   0.732060   0.000386  -0.000258
    17  H    0.002336   0.001840  -0.001047   0.000386   0.396333   0.320925
    18  F   -0.001919  -0.000636   0.000534  -0.000258   0.320925   8.919692
    19  H    0.002336   0.001840   0.000386  -0.001047  -0.000980   0.000332
    20  F   -0.001919  -0.000636  -0.000258   0.000534   0.000332  -0.000027
              19         20
     1  C    0.011522   0.144606
     2  C   -0.001905  -0.039234
     3  C   -0.000388  -0.026072
     4  C   -0.002441   0.008529
     5  C   -0.000334  -0.026065
     6  C   -0.001780  -0.039317
     7  F    0.012851  -0.008113
     8  H   -0.000544   0.000204
     9  H    0.000140  -0.000891
    10  H   -0.000079   0.000249
    11  H    0.000141  -0.000891
    12  H   -0.000545   0.000213
    13  O    0.002336  -0.001919
    14  C    0.001840  -0.000636
    15  H    0.000386  -0.000258
    16  H   -0.001047   0.000534
    17  H   -0.000980   0.000332
    18  F    0.000332  -0.000027
    19  H    0.396333   0.320925
    20  F    0.320925   8.919692
 Mulliken charges:
               1
     1  C   -0.870226
     2  C    0.181502
     3  C   -0.063985
     4  C   -0.178506
     5  C   -0.063485
     6  C    0.185571
     7  F   -0.154722
     8  H    0.185100
     9  H    0.189374
    10  H    0.164434
    11  H    0.189384
    12  H    0.184988
    13  O   -0.271513
    14  C    0.074552
    15  H    0.112390
    16  H    0.112390
    17  H    0.263239
    18  F   -0.251862
    19  H    0.263239
    20  F   -0.251862
 Sum of Mulliken charges =  -0.00000
 Mulliken charges with hydrogens summed into heavy atoms:
               1
     1  C   -0.870226
     2  C    0.366601
     3  C    0.125389
     4  C   -0.014072
     5  C    0.125899
     6  C    0.370559
     7  F   -0.154722
    13  O   -0.271513
    14  C    0.299331
    18  F    0.011377
    20  F    0.011377
 Electronic spatial extent (au):  <R**2>=           2836.1798
 Charge=             -0.0000 electrons
 Dipole moment (field-independent basis, Debye):
    X=              0.0074    Y=              0.7975    Z=              0.0000  Tot=              0.7975
 Quadrupole moment (field-independent basis, Debye-Ang):
   XX=            -56.9479   YY=            -32.8964   ZZ=            -85.2032
   XY=              0.0452   XZ=             -0.0000   YZ=             -0.0000
 Traceless Quadrupole moment (field-independent basis, Debye-Ang):
   XX=              1.4013   YY=             25.4528   ZZ=            -26.8541
   XY=              0.0452   XZ=             -0.0000   YZ=             -0.0000
 Octapole moment (field-independent basis, Debye-Ang**2):
  XXX=             -0.0212  YYY=            137.5976  ZZZ=              0.0000  XYY=              0.2155
  XXY=              2.1761  XXZ=              0.0000  XZZ=              0.0311  YZZ=              5.6734
  YYZ=             -0.0000  XYZ=             -0.0000
 Hexadecapole moment (field-independent basis, Debye-Ang**3):
 XXXX=           -246.7545 YYYY=          -1594.3977 ZZZZ=           -998.3535 XXXY=             -1.0150
 XXXZ=             -0.0000 YYYX=              0.1199 YYYZ=              0.0000 ZZZX=             -0.0000
 ZZZY=             -0.0000 XXYY=           -423.1459 XXZZ=           -173.3590 YYZZ=           -546.3370
 XXYZ=              0.0000 YYXZ=              0.0000 ZZXY=             -0.3241
 N-N= 5.839088757139D+02 E-N=-2.694442345307D+03  KE= 6.473827552597D+02
 Symmetry A'   KE= 5.272824003844D+02
 Symmetry A"   KE= 1.201003548754D+02
 Calling FoFJK, ICntrl=      2127 FMM=F ISym2X=1 I1Cent= 0 IOpClX= 0 NMat=1 NMatS=1 NMatT=0.
 ***** Axes restored to original set *****
 -------------------------------------------------------------------
 Center     Atomic                   Forces (Hartrees/Bohr)
 Number     Number              X              Y              Z
 -------------------------------------------------------------------
      1        6          -0.084487121   -0.000000000   -0.048777167
      2        6          -0.053192263    0.000000000    0.014802444
      3        6           0.002705119   -0.000000000    0.036498441
      4        6           0.038624174   -0.000000000    0.022299632
      5        6           0.032960708    0.000000000   -0.015906211
      6        6          -0.013777669   -0.000000000   -0.053468074
      7        9           0.021042631    0.000000000    0.012150421
      8        1          -0.065594702   -0.000000000    0.035780897
      9        1          -0.001689473    0.000000000    0.073740819
     10        1           0.064251700    0.000000000    0.037095780
     11        1           0.063016722   -0.000000000   -0.038333538
     12        1          -0.001810739    0.000000000   -0.074696933
     13        8           0.011938539   -0.000000000    0.006872295
     14        6           0.066864938    0.000000000    0.038953853
     15        1          -0.039346253    0.072305934   -0.022880107
     16        1          -0.039346253   -0.072305934   -0.022880107
     17        1          -0.005583466   -0.028958861   -0.003226625
     18        9           0.004503438    0.025474968    0.002600402
     19        1          -0.005583466    0.028958861   -0.003226625
     20        9           0.004503438   -0.025474968    0.002600402
 -------------------------------------------------------------------
 Cartesian Forces:  Max     0.084487121 RMS     0.034716541
 -----------------------------------------------------------------------------------------------
                       Internal Coordinate Forces (Hartree/Bohr or radian)
  Cent   Atom   N1       Length/X         N2         Alpha/Y        N3         Beta/Z          J
 -----------------------------------------------------------------------------------------------
      1  C 
      2  C        1   0.036607(     1)
      3  C        2   0.152000(     2)      1   0.159180(    20)
      4  C        3   0.220217(     3)      2   0.410995(    21)      1  -0.000000(    38)     0
      5  C        4   0.183611(     4)      3   0.447820(    22)      2  -0.000000(    39)     0
      6  C        5   0.078789(     5)      4   0.252044(    23)      3  -0.000000(    40)     0
      7  F        1  -0.021931(     6)      2   0.000001(    24)      3  -0.000000(    41)     0
      8  H        2   0.074697(     7)      3   0.003421(    25)      4  -0.000000(    42)     0
      9  H        3   0.073741(     8)      4   0.003193(    26)      5   0.000000(    43)     0
     10  H        4   0.074191(     9)      5   0.000000(    27)      6   0.000000(    44)     0
     11  H        5   0.073741(    10)      6  -0.003193(    28)      1  -0.000000(    45)     0
     12  H        6   0.074697(    11)      1  -0.003422(    29)      2   0.000000(    46)     0
     13  O        7  -0.000129(    12)      1   0.000007(    30)      3   0.000000(    47)     0
     14  C       13   0.013646(    13)      1   0.000104(    31)      2   0.000000(    48)     0
     15  H       14   0.085376(    14)      1   0.006169(    32)      2   0.000116(    49)     0
     16  H       14   0.085376(    15)      1   0.006169(    33)      2  -0.000116(    50)     0
     17  H        7  -0.003214(    16)      1   0.006787(    34)      2   0.000009(    51)     0
     18  F       17   0.025991(    17)      7  -0.001186(    35)      1  -0.000000(    52)     0
     19  H        7  -0.003214(    18)      1   0.006787(    36)      2  -0.000009(    53)     0
     20  F       19   0.025991(    19)      7  -0.001186(    37)      1   0.000000(    54)     0
 -----------------------------------------------------------------------------------------------
 Internal  Forces:  Max     0.447820198 RMS     0.106766937

 GradGradGradGradGradGradGradGradGradGradGradGradGradGradGradGradGradGrad
 Berny optimization.
 Search for a local minimum.
 Step number   1 out of a maximum of   29
 All quantities printed in internal units (Hartrees-Bohrs-Radians)
 Second derivative matrix not updated -- first step.
 The second derivative matrix:
                          d1        d2        d3        d4        d5
           d1           0.95300
           d2          -0.05489   0.95300
           d3          -0.33597   0.33597   1.34386
           d4          -0.28107   0.05489   0.33597   0.95300
           d5           0.05489  -0.28107  -0.33597  -0.05489   0.95300
           d6           0.00000   0.00000  -0.00000  -0.00000  -0.00000
           d7           0.00000   0.00000  -0.00000  -0.00000  -0.00000
           d8          -0.00000  -0.00000   0.00000   0.00000   0.00000
           d9           0.00000   0.00000   0.00000  -0.00000  -0.00000
           d10         -0.00000  -0.00000  -0.00000   0.00000   0.00000
           d11          0.00000  -0.00000  -0.00000  -0.00000  -0.00000
           d12          0.00000   0.00000   0.00000  -0.00000  -0.00000
           d13          0.00000   0.00000   0.00000  -0.00000  -0.00000
           d14         -0.00000  -0.00000   0.00000   0.00000   0.00000
           d15          0.00000   0.00000   0.00000  -0.00000  -0.00000
           d16         -0.00000  -0.00000  -0.00000   0.00000   0.00000
           d17         -0.00000  -0.00000   0.00000   0.00000   0.00000
           d18         -0.00000  -0.00000  -0.00000   0.00000   0.00000
           d19         -0.00000  -0.00000   0.00000   0.00000   0.00000
                          d6        d7        d8        d9        d10
           d6           0.45621
           d7           0.00000   0.47688
           d8          -0.00000   0.00000   0.47688
           d9           0.00000  -0.00000   0.00000   0.47688
           d10          0.00000  -0.00000  -0.00000   0.00000   0.47688
           d11          0.00000  -0.00000   0.00000   0.00000   0.00000
           d12         -0.00000  -0.00000  -0.00000   0.00000   0.00000
           d13         -0.00000  -0.00000  -0.00000   0.00000   0.00000
           d14          0.00000   0.00000   0.00000  -0.00000  -0.00000
           d15         -0.00000  -0.00000  -0.00000   0.00000   0.00000
           d16         -0.00000   0.00000   0.00000  -0.00000  -0.00000
           d17          0.00000   0.00000   0.00000  -0.00000  -0.00000
           d18          0.00000  -0.00000   0.00000  -0.00000  -0.00000
           d19         -0.00000  -0.00000   0.00000  -0.00000  -0.00000
                          d11       d12       d13       d14       d15
           d11          0.47688
           d12          0.00000   0.02330
           d13          0.00000  -0.00000   1.04823
           d14         -0.00000   0.00000   0.00000   0.47688
           d15          0.00000   0.00000  -0.00000   0.00000   0.47688
           d16         -0.00000   0.00000   0.00000   0.00000   0.00000
           d17         -0.00000  -0.00000  -0.00000   0.00000  -0.00000
           d18          0.00000  -0.00000   0.00000   0.00000  -0.00000
           d19          0.00000   0.00000   0.00000  -0.00000   0.00000
                          d16       d17       d18       d19
           d16          0.02721
           d17          0.00000   0.70673
           d18          0.00000   0.00000   0.02721
           d19          0.00000  -0.00000  -0.00000   0.70673
 ITU=  0
     Eigenvalues ---    0.02330   0.02721   0.02721   0.45621   0.47688
     Eigenvalues ---    0.47688   0.47688   0.47688   0.47688   0.47688
     Eigenvalues ---    0.47688   0.67193   0.67193   0.67193   0.70673
     Eigenvalues ---    0.70673   1.04823   1.12429   2.01579
 RFO step:  Lambda=-1.62758366D-01 EMin= 2.33007068D-02
 Linear search not attempted -- first point.
 Maximum step size (   0.300) exceeded in Quadratic search.
    -- Step size scaled by   0.670
 Variable       Old X    -DE/DX   Delta X   Delta X   Delta X     New X
                                 (Linear)    (Quad)   (Total)
    d1        2.45664   0.03661   0.00000   0.07543   0.07543   2.53208
    d2        2.45664   0.15200   0.00000   0.08627   0.08627   2.54292
    d3        2.45664   0.22022   0.00000   0.09493   0.09493   2.55157
    d4        2.45664   0.18361   0.00000   0.10123   0.10123   2.55787
    d5        2.45664   0.07879   0.00000   0.09887   0.09887   2.55551
    d6        2.64562  -0.02193   0.00000  -0.02372  -0.02372   2.62189
    d7        1.88973   0.07470   0.00000   0.07820   0.07820   1.96792
    d8        1.88973   0.07374   0.00000   0.07719   0.07719   1.96692
    d9        1.88973   0.07419   0.00000   0.07767   0.07767   1.96739
   d10        1.88973   0.07374   0.00000   0.07719   0.07719   1.96692
   d11        1.88973   0.07470   0.00000   0.07820   0.07820   1.96792
   d12        5.29123  -0.00013   0.00000  -0.00046  -0.00046   5.29077
   d13        2.26767   0.01365   0.00000   0.00755   0.00755   2.27522
   d14        1.88973   0.08538   0.00000   0.08937   0.08937   1.97910
   d15        1.88973   0.08538   0.00000   0.08937   0.08937   1.97910
   d16        4.34637  -0.00321   0.00000  -0.01133  -0.01133   4.33504
   d17        1.70075   0.02599   0.00000   0.02002   0.02002   1.72077
   d18        4.34637  -0.00321   0.00000  -0.01133  -0.01133   4.33504
   d19        1.70075   0.02599   0.00000   0.02002   0.02002   1.72077
         Item               Value     Threshold  Converged?
 Maximum Force            0.220217     0.000450     NO 
 RMS     Force            0.090907     0.000300     NO 
 Maximum Displacement     0.101228     0.001800     NO 
 RMS     Displacement     0.068825     0.001200     NO 
 Predicted change in Energy=-7.981958D-02
 GradGradGradGradGradGradGradGradGradGradGradGradGradGradGradGradGradGrad

 ---------------------------------------------------------------------------------------------------
                            Z-MATRIX (ANGSTROMS AND DEGREES)
   CD    Cent   Atom    N1       Length/X        N2       Alpha/Y        N3        Beta/Z          J
 ---------------------------------------------------------------------------------------------------
      1      1  C 
      2      2  C        1   1.339918(     1)
      3      3  C        2   1.345653(     2)      1  120.000(    20)
      4      4  C        3   1.350235(     3)      2  120.000(    21)      1    0.000(    38)      0
      5      5  C        4   1.353568(     4)      3  120.000(    22)      2    0.000(    39)      0
      6      6  C        5   1.352319(     5)      4  120.000(    23)      3    0.000(    40)      0
      7      7  F        1   1.387445(     6)      2  120.000(    24)      3  180.000(    41)      0
      8      8  H        2   1.041379(     7)      3  120.000(    25)      4  180.000(    42)      0
      9      9  H        3   1.040850(     8)      4  120.000(    26)      5  180.000(    43)      0
     10     10  H        4   1.041099(     9)      5  120.000(    27)      6  180.000(    44)      0
     11     11  H        5   1.040850(    10)      6  120.000(    28)      1  180.000(    45)      0
     12     12  H        6   1.041379(    11)      1  120.000(    29)      2  180.000(    46)      0
     13     13  O        7   2.799754(    12)      1  179.900(    30)      3  180.000(    47)      0
     14     14  C       13   1.203993(    13)      1  179.900(    31)      2  180.000(    48)      0
     15     15  H       14   1.047295(    14)      1  120.000(    32)      2   90.000(    49)      0
     16     16  H       14   1.047295(    15)      1  120.000(    33)      2  -90.000(    50)      0
     17     17  H        7   2.294005(    16)      1  100.000(    34)      2   90.000(    51)      0
     18     18  F       17   0.910592(    17)      7  160.000(    35)      1    0.000(    52)      0
     19     19  H        7   2.294005(    18)      1  100.000(    36)      2  -90.000(    53)      0
     20     20  F       19   0.910592(    19)      7  160.000(    37)      1    0.000(    54)      0
 ---------------------------------------------------------------------------------------------------
                         Z-Matrix orientation:                         
 ---------------------------------------------------------------------
 Center     Atomic      Atomic             Coordinates (Angstroms)
 Number     Number       Type             X           Y           Z
 ---------------------------------------------------------------------
      1          6           0        0.000000    0.000000    0.000000
      2          6           0        0.000000    0.000000    1.339918
      3          6           0        1.165370    0.000000    2.012745
      4          6           0        2.334708    0.000000    1.337627
      5          6           0        2.334708    0.000000   -0.015940
      6          6           0        1.163565    0.000000   -0.692100
      7          9           0       -1.201563   -0.000000   -0.693723
      8          1           0       -0.901861   -0.000000    1.860607
      9          1           0        1.165370   -0.000000    3.053594
     10          1           0        3.236326   -0.000000    1.858177
     11          1           0        3.236110   -0.000000   -0.536365
     12          1           0        1.150031   -0.000000   -1.733391
     13          8           0       -3.623774   -0.000000   -2.097829
     14          6           0       -4.664705   -0.000000   -2.702860
     15          1           0       -5.117789    0.906984   -2.965389
     16          1           0       -5.117789   -0.906984   -2.965389
     17          1           0       -1.546544    2.259154   -0.892898
     18          9           0       -1.409606    3.155912   -0.813836
     19          1           0       -1.546544   -2.259154   -0.892898
     20          9           0       -1.409606   -3.155912   -0.813836
 ---------------------------------------------------------------------
                    Distance matrix (angstroms):
                    1          2          3          4          5
     1  C    0.000000
     2  C    1.339918   0.000000
     3  C    2.325775   1.345653   0.000000
     4  C    2.690745   2.334709   1.350235   0.000000
     5  C    2.334762   2.699854   2.341562   1.353568   0.000000
     6  C    1.353841   2.341576   2.704845   2.343367   1.352319
     7  F    1.387445   2.362085   3.595461   4.078185   3.600638
     8  H    2.067659   1.041379   2.072822   3.278549   3.741231
     9  H    3.268413   2.072384   1.040850   2.076510   3.284721
    10  H    3.731840   3.277560   2.076716   1.041099   2.079719
    11  H    3.280258   3.740701   3.284193   2.079513   1.040850
    12  H    2.080197   3.281433   3.746167   3.291597   2.086407
    13  O    4.187198   4.994982   6.311317   6.877926   6.311717
    14  C    5.391189   6.172805   7.498447   8.081913   7.497420
    15  H    5.983972   6.749078   8.067374   8.653223   8.066075
    16  H    5.983972   6.749078   8.067374   8.653223   8.066075
    17  H    2.879729   3.532851   4.571762   5.014292   4.575690
    18  F    3.550929   4.072520   4.957806   5.348687   4.961481
    19  H    2.879729   3.532851   4.571762   5.014292   4.575690
    20  F    3.550929   4.072520   4.957806   5.348687   4.961481
                    6          7          8          9         10
     6  C    0.000000
     7  F    2.365128   0.000000
     8  H    3.283641   2.571852   0.000000
     9  H    3.745695   4.432240   2.386768   0.000000
    10  H    3.286374   5.119282   4.138188   2.391209   0.000000
    11  H    2.078388   4.440462   4.782079   4.144366   2.394542
    12  H    1.041379   2.571168   4.138489   4.787010   4.153551
    13  O    4.989458   2.799754   4.803960   7.033709   7.919025
    14  C    6.165378   4.003746   5.914747   8.193079   9.123012
    15  H    6.741355   4.617350   6.472010   8.748078   9.689203
    16  H    6.741355   4.617350   6.472010   8.748078   9.689203
    17  H    3.533947   2.294005   3.619555   5.294625   5.962217
    18  F    4.073795   3.165041   4.167761   5.616698   6.219655
    19  H    3.533947   2.294005   3.619555   5.294625   5.962217
    20  F    4.073795   3.165041   4.167761   5.616698   6.219655
                   11         12         13         14         15
    11  H    0.000000
    12  H    2.405119   0.000000
    13  O    7.035352   4.787696   0.000000
    14  C    8.192470   5.895000   1.203993   0.000000
    15  H    8.747022   6.451822   1.951246   1.047295   0.000000
    16  H    8.747022   6.451822   1.951246   1.047295   1.813968
    17  H    5.301383   3.616866   3.297047   4.254723   4.344810
    18  F    5.623117   4.166185   4.063368   4.911605   4.841227
    19  H    5.301383   3.616866   3.297047   4.254723   5.203215
    20  F    5.623117   4.166185   4.063368   4.911605   5.906516
                   16         17         18         19         20
    16  H    0.000000
    17  H    5.203215   0.000000
    18  F    5.906516   0.910592   0.000000
    19  H    4.344810   4.518307   5.417373   0.000000
    20  F    4.841227   5.417373   6.311823   0.910592   0.000000
 Stoichiometry    C7H9F3O
 Framework group  CS[SG(C7H5FO),X(H4F2)]
 Deg. of freedom    34
 Full point group                 CS      NOp   2
 Largest Abelian subgroup         CS      NOp   2
 Largest concise Abelian subgroup CS      NOp   2
                         Standard orientation:                         
 ---------------------------------------------------------------------
 Center     Atomic      Atomic             Coordinates (Angstroms)
 Number     Number       Type             X           Y           Z
 ---------------------------------------------------------------------
      1          6           0       -0.005281   -0.763244    0.000000
      2          6           0       -1.165684   -1.433203    0.000000
      3          6           0       -1.165684   -2.778857    0.000000
      4          6           0        0.003654   -3.453974    0.000000
      5          6           0        1.175878   -2.777190    0.000000
      6          6           0        1.175878   -1.424871    0.000000
      7          9           0       -0.005281    0.624201   -0.000000
      8          1           0       -2.067545   -0.912514    0.000000
      9          1           0       -2.067086   -3.299282    0.000000
     10          1           0        0.003654   -4.495073    0.000000
     11          1           0        2.077280   -3.297615    0.000000
     12          1           0        2.070896   -0.892505    0.000000
     13          8           0       -0.000394    3.423951   -0.000000
     14          6           0        0.003112    4.627939   -0.000000
     15          1           0        0.003927    5.151586    0.906984
     16          1           0        0.003927    5.151586   -0.906984
     17          1           0       -0.005281    1.022551    2.259154
     18          9           0       -0.005281    0.864428    3.155912
     19          1           0       -0.005281    1.022551   -2.259154
     20          9           0       -0.005281    0.864428   -3.155912
 ---------------------------------------------------------------------
 Rotational constants (GHZ):           1.0673963           0.4825662           0.3730903
 Standard basis: 6-311++G(d,p) (5D, 7F)
 There are   220 symmetry adapted cartesian basis functions of A'  symmetry.
 There are    96 symmetry adapted cartesian basis functions of A"  symmetry.
 There are   210 symmetry adapted basis functions of A'  symmetry.
 There are    95 symmetry adapted basis functions of A"  symmetry.
   305 basis functions,   477 primitive gaussians,   316 cartesian basis functions
    43 alpha electrons       43 beta electrons
       nuclear repulsion energy       573.9174120565 Hartrees.
 NAtoms=   20 NActive=   20 NUniq=   17 SFac= 1.38D+00 NAtFMM=   60 NAOKFM=F Big=F
 Integral buffers will be    131072 words long.
 Raffenetti 2 integral format.
 Two-electron integral symmetry is turned on.
 One-electron integrals computed using PRISM.
 NBasis=   305 RedAO= T EigKep=  5.01D-06  NBF=   210    95
 NBsUse=   304 1.00D-06 EigRej=  6.80D-07 NBFU=   209    95
 Initial guess from the checkpoint file:  "model_H2b.chk"
 B after Tr=     0.000000    0.000000    0.000000
         Rot=    1.000000   -0.000000   -0.000000   -0.000814 Ang=  -0.09 deg.
 Initial guess orbital symmetries:
       Occupied  (A') (A') (A") (A') (A') (A') (A') (A') (A') (A')
                 (A') (A') (A") (A') (A') (A') (A') (A') (A') (A')
                 (A') (A') (A") (A') (A") (A') (A') (A") (A') (A')
                 (A') (A') (A') (A") (A') (A") (A") (A') (A') (A')
                 (A") (A") (A")
       Virtual   (A') (A') (A') (A') (A') (A") (A") (A") (A') (A')
                 (A") (A') (A') (A') (A") (A") (A') (A') (A') (A")
                 (A') (A') (A') (A') (A') (A") (A") (A') (A") (A')
                 (A") (A') (A') (A') (A') (A') (A') (A") (A') (A')
                 (A') (A") (A") (A') (A') (A') (A") (A') (A") (A')
                 (A') (A') (A') (A") (A') (A') (A') (A') (A") (A')
                 (A') (A') (A') (A') (A') (A") (A') (A') (A') (A")
                 (A') (A') (A") (A') (A") (A') (A') (A") (A') (A')
                 (A') (A') (A") (A") (A") (A') (A") (A') (A') (A")
                 (A') (A') (A") (A') (A') (A') (A') (A') (A') (A')
                 (A') (A') (A') (A') (A') (A") (A') (A') (A") (A")
                 (A') (A') (A") (A') (A") (A") (A') (A") (A") (A')
                 (A") (A') (A') (A') (A") (A') (A") (A') (A") (A')
                 (A') (A") (A') (A') (A") (A") (A') (A') (A') (A')
                 (A') (A") (A") (A') (A") (A") (A') (A') (A") (A')
                 (A') (A') (A") (A') (A') (A") (A') (A") (A') (A')
                 (A") (A") (A') (A') (A") (A') (A') (A') (A') (A')
                 (A") (A") (A") (A') (A') (A") (A') (A') (A") (A")
                 (A') (A') (A') (A') (A') (A") (A') (A') (A') (A")
                 (A') (A') (A') (A') (A") (A") (A') (A") (A") (A")
                 (A') (A') (A') (A") (A') (A') (A') (A') (A') (A")
                 (A') (A') (A') (A') (A') (A") (A") (A") (A') (A')
                 (A') (A") (A") (A') (A') (A") (A') (A') (A") (A')
                 (A') (A') (A') (A') (A") (A') (A') (A') (A') (A")
                 (A') (A") (A') (A") (A') (A") (A') (A') (A") (A')
                 (A') (A') (A') (A') (A') (A') (A') (A') (A") (A')
                 (A')
 ExpMin= 3.60D-02 ExpMax= 1.14D+04 ExpMxC= 1.72D+03 IAcc=3 IRadAn=         5 AccDes= 0.00D+00
 Harris functional with IExCor= 1009 and IRadAn=       5 diagonalized for initial guess.
 HarFok:  IExCor= 1009 AccDes= 0.00D+00 IRadAn=         5 IDoV= 1 UseB2=F ITyADJ=14
 ICtDFT=  3500011 ScaDFX=  1.000000  1.000000  1.000000  1.000000
 FoFCou: FMM=F IPFlag=           0 FMFlag=      100000 FMFlg1=           0
         NFxFlg=           0 DoJE=T BraDBF=F KetDBF=T FulRan=T
         wScrn=  0.000000 ICntrl=       500 IOpCl=  0 I1Cent=   200000004 NGrid=           0
         NMat0=    1 NMatS0=      1 NMatT0=    0 NMatD0=    1 NMtDS0=    0 NMtDT0=    0
 Petite list used in FoFCou.
 Requested convergence on RMS density matrix=1.00D-08 within 128 cycles.
 Requested convergence on MAX density matrix=1.00D-06.
 Requested convergence on             energy=1.00D-06.
 No special actions if energy rises.
 SCF Done:  E(RM062X) =  -646.806476595     A.U. after   12 cycles
            NFock= 12  Conv=0.72D-08     -V/T= 2.0014
 Calling FoFJK, ICntrl=      2127 FMM=F ISym2X=1 I1Cent= 0 IOpClX= 0 NMat=1 NMatS=1 NMatT=0.
 ***** Axes restored to original set *****
 -------------------------------------------------------------------
 Center     Atomic                   Forces (Hartrees/Bohr)
 Number     Number              X              Y              Z
 -------------------------------------------------------------------
      1        6          -0.025678890   -0.000000000   -0.029787986
      2        6          -0.028617927   -0.000000000    0.009316115
      3        6           0.008124140    0.000000000    0.009517379
      4        6           0.011897574   -0.000000000    0.004454936
      5        6           0.005182542    0.000000000   -0.001019242
      6        6          -0.009933660   -0.000000000   -0.015882976
      7        9           0.017074548   -0.000000000    0.010736277
      8        1          -0.030061083    0.000000000    0.015158200
      9        1          -0.001304936   -0.000000000    0.033140231
     10        1           0.028882190   -0.000000000    0.016491061
     11        1           0.028038702   -0.000000000   -0.017756102
     12        1          -0.001618732    0.000000000   -0.033214992
     13        8           0.000801644   -0.000000000    0.000397403
     14        6           0.039833256   -0.000000000    0.023299927
     15        1          -0.020221025    0.032501807   -0.011793092
     16        1          -0.020221025   -0.032501807   -0.011793092
     17        1          -0.003355357   -0.014915240   -0.001944961
     18        9           0.002266697    0.011633042    0.001312938
     19        1          -0.003355357    0.014915240   -0.001944961
     20        9           0.002266697   -0.011633042    0.001312938
 -------------------------------------------------------------------
 Cartesian Forces:  Max     0.039833256 RMS     0.015917197
 -----------------------------------------------------------------------------------------------
                       Internal Coordinate Forces (Hartree/Bohr or radian)
  Cent   Atom   N1       Length/X         N2         Alpha/Y        N3         Beta/Z          J
 -----------------------------------------------------------------------------------------------
      1  C 
      2  C        1   0.019420(     1)
      3  C        2   0.057056(     2)      1   0.027636(    20)
      4  C        3   0.077534(     3)      2   0.122499(    21)      1  -0.000000(    38)     0
      5  C        4   0.068658(     4)      3   0.146288(    22)      2  -0.000000(    39)     0
      6  C        5   0.035350(     5)      4   0.092369(    23)      3  -0.000000(    40)     0
      7  F        1  -0.017860(     6)      2  -0.001970(    24)      3  -0.000000(    41)     0
      8  H        2   0.033613(     7)      3   0.003745(    25)      4   0.000000(    42)     0
      9  H        3   0.033140(     8)      4   0.002567(    26)      5  -0.000000(    43)     0
     10  H        4   0.033258(     9)      5  -0.000314(    27)      6  -0.000000(    44)     0
     11  H        5   0.033160(    10)      6  -0.002671(    28)      1  -0.000000(    45)     0
     12  H        6   0.033233(    11)      1  -0.002336(    29)      2   0.000000(    46)     0
     13  O        7  -0.000223(    12)      1  -0.000002(    30)      3   0.000000(    47)     0
     14  C       13   0.000670(    13)      1   0.000104(    31)      2   0.000000(    48)     0
     15  H       14   0.039852(    14)      1   0.007959(    32)      2   0.000113(    49)     0
     16  H       14   0.039852(    15)      1   0.007959(    33)      2  -0.000113(    50)     0
     17  H        7  -0.003014(    16)      1   0.006882(    34)      2   0.000007(    51)     0
     18  F       17   0.011911(    17)      7  -0.000963(    35)      1  -0.000002(    52)     0
     19  H        7  -0.003014(    18)      1   0.006882(    36)      2  -0.000007(    53)     0
     20  F       19   0.011911(    19)      7  -0.000963(    37)      1   0.000002(    54)     0
 -----------------------------------------------------------------------------------------------
 Internal  Forces:  Max     0.146287554 RMS     0.036236360

 GradGradGradGradGradGradGradGradGradGradGradGradGradGradGradGradGradGrad
 Berny optimization.
 Search for a local minimum.
 Step number   2 out of a maximum of   29
 All quantities printed in internal units (Hartrees-Bohrs-Radians)
 Update second derivatives using D2CorN and points    1    2
 DE= -7.58D-02 DEPred=-7.98D-02 R= 9.50D-01
 TightC=F SS=  1.41D+00  RLast= 3.00D-01 DXNew= 5.0454D-01 9.0000D-01
 Trust test= 9.50D-01 RLast= 3.00D-01 DXMaxT set to 5.05D-01
 The second derivative matrix:
                          d1        d2        d3        d4        d5
           d1           0.95715
           d2          -0.04950   0.95991
           d3          -0.32888   0.34488   1.35512
           d4          -0.27473   0.06301   0.34644   0.96254
           d5           0.06045  -0.27387  -0.32653  -0.04643   0.96044
           d6           0.00218   0.00229   0.00215   0.00268   0.00282
           d7           0.00374   0.00495   0.00664   0.00582   0.00503
           d8           0.00371   0.00491   0.00658   0.00577   0.00499
           d9           0.00377   0.00498   0.00666   0.00585   0.00506
           d10          0.00370   0.00490   0.00657   0.00576   0.00497
           d11          0.00390   0.00513   0.00684   0.00603   0.00524
           d12          0.00003   0.00003   0.00003   0.00004   0.00004
           d13          0.00233   0.00273   0.00312   0.00320   0.00307
           d14          0.00368   0.00497   0.00683   0.00584   0.00496
           d15          0.00368   0.00497   0.00683   0.00584   0.00496
           d16         -0.00027  -0.00040  -0.00062  -0.00047  -0.00037
           d17          0.00052   0.00077   0.00115   0.00091   0.00072
           d18         -0.00027  -0.00040  -0.00062  -0.00047  -0.00037
           d19          0.00052   0.00077   0.00115   0.00091   0.00072
                          d6        d7        d8        d9        d10
           d6           0.45443
           d7           0.00243   0.48018
           d8           0.00240   0.00327   0.48013
           d9           0.00240   0.00333   0.00330   0.48024
           d10          0.00240   0.00326   0.00324   0.00330   0.48012
           d11          0.00238   0.00346   0.00344   0.00349   0.00343
           d12         -0.00003   0.00004   0.00003   0.00003   0.00004
           d13         -0.00038   0.00236   0.00233   0.00235   0.00233
           d14          0.00297   0.00315   0.00313   0.00319   0.00312
           d15          0.00297   0.00315   0.00313   0.00319   0.00312
           d16         -0.00044  -0.00019  -0.00019  -0.00020  -0.00019
           d17          0.00076   0.00039   0.00039   0.00040   0.00039
           d18         -0.00044  -0.00019  -0.00019  -0.00020  -0.00019
           d19          0.00076   0.00039   0.00039   0.00040   0.00039
                          d11       d12       d13       d14       d15
           d11          0.48051
           d12          0.00003   0.02330
           d13          0.00238  -0.00001   1.04866
           d14          0.00333   0.00004   0.00264   0.47977
           d15          0.00333   0.00004   0.00264   0.00288   0.47977
           d16         -0.00022  -0.00001  -0.00031  -0.00013  -0.00013
           d17          0.00044   0.00001   0.00056   0.00029   0.00029
           d18         -0.00022  -0.00001  -0.00031  -0.00013  -0.00013
           d19          0.00044   0.00001   0.00056   0.00029   0.00029
                          d16       d17       d18       d19
           d16          0.02719
           d17          0.00002   0.70671
           d18         -0.00001   0.00002   0.02719
           d19          0.00002  -0.00001   0.00002   0.70671
 ITU=  1  0
     Eigenvalues ---    0.02330   0.02718   0.02721   0.45339   0.47671
     Eigenvalues ---    0.47688   0.47688   0.47688   0.47688   0.47688
     Eigenvalues ---    0.49653   0.67187   0.67193   0.70459   0.70673
     Eigenvalues ---    0.70946   1.04884   1.12466   2.02327
 RFO step:  Lambda=-4.37528207D-03 EMin= 2.33001142D-02
 Quartic linear search produced a step of  0.90413.
 Variable       Old X    -DE/DX   Delta X   Delta X   Delta X     New X
                                 (Linear)    (Quad)   (Total)
    d1        2.53208   0.01942   0.06820   0.00244   0.07064   2.60272
    d2        2.54292   0.05706   0.07800  -0.00940   0.06860   2.61151
    d3        2.55157   0.07753   0.08583  -0.02289   0.06294   2.61452
    d4        2.55787   0.06866   0.09152  -0.01331   0.07821   2.63608
    d5        2.55551   0.03535   0.08939  -0.00170   0.08769   2.64321
    d6        2.62189  -0.01786  -0.02145  -0.03878  -0.06023   2.56166
    d7        1.96792   0.03361   0.07070   0.01501   0.08571   2.05363
    d8        1.96692   0.03314   0.06979   0.01464   0.08444   2.05136
    d9        1.96739   0.03326   0.07022   0.01439   0.08461   2.05200
   d10        1.96692   0.03316   0.06979   0.01472   0.08452   2.05144
   d11        1.96792   0.03323   0.07070   0.01346   0.08416   2.05208
   d12        5.29077  -0.00022  -0.00042  -0.01365  -0.01407   5.27670
   d13        2.27522   0.00067   0.00682  -0.00976  -0.00294   2.27228
   d14        1.97910   0.03985   0.08081   0.02298   0.10379   2.08289
   d15        1.97910   0.03985   0.08081   0.02298   0.10379   2.08289
   d16        4.33504  -0.00301  -0.01024  -0.14012  -0.15037   4.18467
   d17        1.72077   0.01191   0.01810   0.00280   0.02089   1.74166
   d18        4.33504  -0.00301  -0.01024  -0.14012  -0.15037   4.18467
   d19        1.72077   0.01191   0.01810   0.00280   0.02089   1.74166
         Item               Value     Threshold  Converged?
 Maximum Force            0.077534     0.000450     NO 
 RMS     Force            0.036233     0.000300     NO 
 Maximum Displacement     0.150367     0.001800     NO 
 RMS     Displacement     0.084229     0.001200     NO 
 Predicted change in Energy=-1.536580D-02
 GradGradGradGradGradGradGradGradGradGradGradGradGradGradGradGradGradGrad

 ---------------------------------------------------------------------------------------------------
                            Z-MATRIX (ANGSTROMS AND DEGREES)
   CD    Cent   Atom    N1       Length/X        N2       Alpha/Y        N3        Beta/Z          J
 ---------------------------------------------------------------------------------------------------
      1      1  C 
      2      2  C        1   1.377299(     1)
      3      3  C        2   1.381953(     2)      1  120.000(    20)
      4      4  C        3   1.383543(     3)      2  120.000(    21)      1    0.000(    38)      0
      5      5  C        4   1.394956(     4)      3  120.000(    22)      2    0.000(    39)      0
      6      6  C        5   1.398724(     5)      4  120.000(    23)      3    0.000(    40)      0
      7      7  F        1   1.355572(     6)      2  120.000(    24)      3  180.000(    41)      0
      8      8  H        2   1.086733(     7)      3  120.000(    25)      4  180.000(    42)      0
      9      9  H        3   1.085532(     8)      4  120.000(    26)      5  180.000(    43)      0
     10     10  H        4   1.085873(     9)      5  120.000(    27)      6  180.000(    44)      0
     11     11  H        5   1.085575(    10)      6  120.000(    28)      1  180.000(    45)      0
     12     12  H        6   1.085916(    11)      1  120.000(    29)      2  180.000(    46)      0
     13     13  O        7   2.792309(    12)      1  179.900(    30)      3  180.000(    47)      0
     14     14  C       13   1.202438(    13)      1  179.900(    31)      2  180.000(    48)      0
     15     15  H       14   1.102218(    14)      1  120.000(    32)      2   90.000(    49)      0
     16     16  H       14   1.102218(    15)      1  120.000(    33)      2  -90.000(    50)      0
     17     17  H        7   2.214434(    16)      1  100.000(    34)      2   90.000(    51)      0
     18     18  F       17   0.921649(    17)      7  160.000(    35)      1    0.000(    52)      0
     19     19  H        7   2.214434(    18)      1  100.000(    36)      2  -90.000(    53)      0
     20     20  F       19   0.921649(    19)      7  160.000(    37)      1    0.000(    54)      0
 ---------------------------------------------------------------------------------------------------
                         Z-Matrix orientation:                         
 ---------------------------------------------------------------------
 Center     Atomic      Atomic             Coordinates (Angstroms)
 Number     Number       Type             X           Y           Z
 ---------------------------------------------------------------------
      1          6           0        0.000000    0.000000    0.000000
      2          6           0        0.000000    0.000000    1.377299
      3          6           0        1.196807    0.000000    2.068275
      4          6           0        2.394990    0.000000    1.376504
      5          6           0        2.394990    0.000000   -0.018452
      6          6           0        1.183659    0.000000   -0.717814
      7          9           0       -1.173960   -0.000000   -0.677786
      8          1           0       -0.941138   -0.000000    1.920665
      9          1           0        1.196807   -0.000000    3.153807
     10          1           0        3.335383   -0.000000    1.919440
     11          1           0        3.335125   -0.000000   -0.561239
     12          1           0        1.160271   -0.000000   -1.803478
     13          8           0       -3.589730   -0.000000   -2.078159
     14          6           0       -4.629312   -0.000000   -2.682417
     15          1           0       -5.106154    0.954548   -2.958719
     16          1           0       -5.106154   -0.954548   -2.958719
     17          1           0       -1.506975    2.180792   -0.870052
     18          9           0       -1.368374    3.088439   -0.790031
     19          1           0       -1.506975   -2.180792   -0.870052
     20          9           0       -1.368374   -3.088439   -0.790031
 ---------------------------------------------------------------------
                    Distance matrix (angstroms):
                    1          2          3          4          5
     1  C    0.000000
     2  C    1.377299   0.000000
     3  C    2.389584   1.381953   0.000000
     4  C    2.762379   2.394990   1.383543   0.000000
     5  C    2.395061   2.772020   2.406257   1.394956   0.000000
     6  C    1.384307   2.406355   2.786120   2.419398   1.398724
     7  F    1.355572   2.366761   3.627863   4.117950   3.629342
     8  H    2.138854   1.086733   2.143035   3.380216   3.858747
     9  H    3.373255   2.142038   1.085532   2.143467   3.390998
    10  H    3.848250   3.379156   2.143749   1.085873   2.154011
    11  H    3.382019   3.857589   3.389211   2.153765   1.085575
    12  H    2.144472   3.385789   3.871926   3.411278   2.170449
    13  O    4.147880   4.982605   6.332760   6.910251   6.329239
    14  C    5.350317   6.157258   7.517495   8.112685   7.512492
    15  H    5.978126   6.766463   8.118445   8.716219   8.113168
    16  H    5.978126   6.766463   8.118445   8.716219   8.113168
    17  H    2.789949   3.475257   4.549732   5.002819   4.550429
    18  F    3.469157   4.013505   4.928338   5.328718   4.929168
    19  H    2.789949   3.475257   4.549732   5.002819   4.550429
    20  F    3.469157   4.013505   4.928338   5.328718   4.929168
                    6          7          8          9         10
     6  C    0.000000
     7  F    2.357959   0.000000
     8  H    3.387674   2.608861   0.000000
     9  H    3.871643   4.505734   2.468086   0.000000
    10  H    3.403678   5.203822   4.276522   2.469245   0.000000
    11  H    2.157156   4.510591   4.944318   4.286487   2.480679
    12  H    1.085916   2.591489   4.276115   4.957420   4.311755
    13  O    4.963445   2.792309   4.796419   7.091150   7.996124
    14  C    6.135984   3.994747   5.898389   8.246525   9.198557
    15  H    6.744966   4.644994   6.485901   8.831843   9.796282
    16  H    6.744966   4.644994   6.485901   8.831843   9.796282
    17  H    3.466777   2.214434   3.586660   5.315800   5.998796
    18  F    4.007062   3.096587   4.131447   5.627829   6.245400
    19  H    3.466777   2.214434   3.586660   5.315800   5.998796
    20  F    4.007062   3.096587   4.131447   5.627829   6.245400
                   11         12         13         14         15
    11  H    0.000000
    12  H    2.504625   0.000000
    13  O    7.089053   4.757937   0.000000
    14  C    8.242066   5.855921   1.202438   0.000000
    15  H    8.826906   6.443122   1.996519   1.102218   0.000000
    16  H    8.826906   6.443122   1.996519   1.102218   1.909097
    17  H    5.319507   3.569501   3.248576   4.217761   4.338236
    18  F    5.631492   4.118200   4.016485   4.873735   4.819512
    19  H    5.319507   3.569501   3.248576   4.217761   5.210276
    20  F    5.631492   4.118200   4.016485   4.873735   5.917766
                   16         17         18         19         20
    16  H    0.000000
    17  H    5.210276   0.000000
    18  F    5.917766   0.921649   0.000000
    19  H    4.338236   4.361583   5.271660   0.000000
    20  F    4.819512   5.271660   6.176877   0.921649   0.000000
 Stoichiometry    C7H9F3O
 Framework group  CS[SG(C7H5FO),X(H4F2)]
 Deg. of freedom    34
 Full point group                 CS      NOp   2
 Largest Abelian subgroup         CS      NOp   2
 Largest concise Abelian subgroup CS      NOp   2
                         Standard orientation:                         
 ---------------------------------------------------------------------
 Center     Atomic      Atomic             Coordinates (Angstroms)
 Number     Number       Type             X           Y           Z
 ---------------------------------------------------------------------
      1          6           0       -0.004917   -0.725295    0.000000
      2          6           0       -1.197693   -1.413944   -0.000000
      3          6           0       -1.197693   -2.795898   -0.000000
      4          6           0        0.000491   -3.487669    0.000000
      5          6           0        1.208558   -2.790191    0.000000
      6          6           0        1.208558   -1.391467    0.000000
      7          9           0       -0.004917    0.630277   -0.000000
[...]
    16  H    6.602264   4.488233   6.348593   8.686437   9.646885
    17  H    3.245246   1.890698   3.376661   5.153216   5.846777
    18  F    3.743012   2.775855   3.879026   5.423180   6.053461
    19  H    3.245246   1.890698   3.376661   5.153216   5.846777
    20  F    3.743012   2.775855   3.879026   5.423180   6.053461
                   11         12         13         14         15
    11  H    0.000000
    12  H    2.503363   0.000000
    13  O    6.949403   4.628279   0.000000
    14  C    8.098562   5.718686   1.200442   0.000000
    15  H    8.683868   6.306023   1.995143   1.102659   0.000000
    16  H    8.683868   6.306023   1.995143   1.102659   1.909861
    17  H    5.159956   3.360662   2.963400   3.969603   4.157310
    18  F    5.429722   3.866920   3.708967   4.595343   4.591697
    19  H    5.159956   3.360662   2.963400   3.969603   4.939175
    20  F    5.429722   3.866920   3.708967   4.595343   5.627364
                   16         17         18         19         20
    16  H    0.000000
    17  H    4.939175   0.000000
    18  F    5.627364   0.922807   0.000000
    19  H    4.157310   3.723948   4.635506   0.000000
    20  F    4.591697   4.635506   5.541523   0.922807   0.000000
 Stoichiometry    C7H9F3O
 Framework group  CS[SG(C7H5FO),X(H4F2)]
 Deg. of freedom    34
 Full point group                 CS      NOp   2
 Largest Abelian subgroup         CS      NOp   2
 Largest concise Abelian subgroup CS      NOp   2
                         Standard orientation:                         
 ---------------------------------------------------------------------
 Center     Atomic      Atomic             Coordinates (Angstroms)
 Number     Number       Type             X           Y           Z
 ---------------------------------------------------------------------
      1          6           0       -0.005937   -0.690251    0.000000
      2          6           0       -1.197084   -1.377960   -0.000000
      3          6           0       -1.197084   -2.759022    0.000000
      4          6           0        0.002918   -3.451844    0.000000
      5          6           0        1.210872   -2.754431    0.000000
      6          6           0        1.210872   -1.355501    0.000000
      7          9           0       -0.005937    0.679243   -0.000000
      8          1           0       -2.135750   -0.836021   -0.000000
      9          1           0       -2.134585   -3.300289    0.000000
     10          1           0        0.002918   -4.534803    0.000000
     11          1           0        2.148279   -3.295644    0.000000
     12          1           0        2.135924   -0.792312    0.000000
     13          8           0       -0.001340    3.312937   -0.000000
     14          6           0        0.002133    4.513374   -0.000000
     15          1           0        0.002988    5.064703    0.954931
     16          1           0        0.002988    5.064703   -0.954931
     17          1           0       -0.005937    1.007559    1.861974
     18          9           0       -0.005937    0.847315    2.770762
     19          1           0       -0.005937    1.007559   -1.861974
     20          9           0       -0.005937    0.847315   -2.770762
 ---------------------------------------------------------------------
 Rotational constants (GHZ):           1.3006652           0.4966026           0.4108161

 **********************************************************************

            Population analysis using the SCF Density.

 **********************************************************************

 Orbital symmetries:
       Occupied  (A') (A') (A") (A') (A') (A') (A') (A') (A') (A')
                 (A') (A') (A") (A') (A') (A') (A') (A') (A') (A')
                 (A') (A') (A") (A') (A') (A") (A') (A") (A') (A')
                 (A') (A') (A') (A") (A") (A') (A') (A") (A') (A')
                 (A") (A") (A")
       Virtual   (A') (A') (A") (A') (A") (A') (A') (A") (A') (A')
                 (A") (A') (A') (A') (A") (A") (A') (A') (A') (A")
                 (A') (A') (A') (A') (A') (A") (A") (A') (A") (A')
                 (A') (A') (A") (A') (A') (A') (A') (A") (A') (A")
                 (A') (A') (A") (A') (A') (A') (A') (A') (A") (A')
                 (A') (A") (A') (A') (A') (A") (A') (A') (A') (A')
                 (A') (A") (A') (A') (A') (A') (A") (A') (A') (A')
                 (A") (A') (A') (A') (A") (A') (A') (A") (A') (A")
                 (A') (A") (A') (A') (A") (A') (A") (A") (A') (A')
                 (A") (A') (A') (A') (A") (A') (A') (A') (A') (A')
                 (A') (A') (A') (A') (A') (A') (A") (A') (A') (A")
                 (A") (A') (A") (A") (A') (A") (A') (A") (A") (A')
                 (A') (A") (A') (A') (A") (A') (A") (A") (A") (A')
                 (A') (A") (A') (A') (A') (A') (A') (A") (A") (A')
                 (A') (A") (A') (A') (A') (A') (A") (A") (A') (A")
                 (A') (A") (A') (A') (A') (A") (A') (A") (A") (A')
                 (A") (A') (A') (A') (A") (A') (A') (A") (A') (A')
                 (A') (A") (A') (A') (A") (A") (A') (A") (A') (A')
                 (A') (A') (A") (A") (A') (A') (A') (A') (A') (A')
                 (A") (A') (A') (A') (A') (A") (A') (A") (A') (A")
                 (A") (A") (A') (A') (A") (A') (A') (A') (A') (A')
                 (A') (A') (A') (A") (A') (A") (A') (A") (A") (A")
                 (A') (A') (A') (A') (A") (A') (A') (A') (A") (A')
                 (A") (A') (A') (A') (A') (A') (A") (A') (A') (A")
                 (A') (A") (A') (A") (A') (A") (A') (A') (A') (A")
                 (A') (A') (A') (A') (A') (A') (A') (A') (A') (A")
                 (A')
 The electronic state is 1-A'.
 Alpha  occ. eigenvalues --  -25.29316 -25.20854 -25.20854 -19.65523 -10.64995
 Alpha  occ. eigenvalues --  -10.64862 -10.56953 -10.56809 -10.56659 -10.56524
 Alpha  occ. eigenvalues --  -10.56070  -1.40758  -1.31997  -1.31939  -1.20346
 Alpha  occ. eigenvalues --   -0.98973  -0.87246  -0.86916  -0.73721  -0.72852
 Alpha  occ. eigenvalues --   -0.72454  -0.65362  -0.64839  -0.61728  -0.60033
 Alpha  occ. eigenvalues --   -0.59515  -0.59122  -0.58019  -0.54763  -0.53319
 Alpha  occ. eigenvalues --   -0.51764  -0.50803  -0.49198  -0.49196  -0.49184
 Alpha  occ. eigenvalues --   -0.49172  -0.48708  -0.45690  -0.44881  -0.42761
 Alpha  occ. eigenvalues --   -0.35829  -0.33149  -0.32510
 Alpha virt. eigenvalues --   -0.01945  -0.00492  -0.00180  -0.00014   0.00556
 Alpha virt. eigenvalues --    0.00880   0.01548   0.02221   0.02874   0.03235
 Alpha virt. eigenvalues --    0.04786   0.05916   0.06689   0.06970   0.08034
 Alpha virt. eigenvalues --    0.09284   0.09506   0.10664   0.10779   0.11657
 Alpha virt. eigenvalues --    0.11788   0.12396   0.12652   0.12841   0.13103
 Alpha virt. eigenvalues --    0.13857   0.14040   0.14118   0.14964   0.15609
 Alpha virt. eigenvalues --    0.15852   0.16252   0.17031   0.17692   0.18041
 Alpha virt. eigenvalues --    0.19591   0.19814   0.21383   0.21758   0.22288
 Alpha virt. eigenvalues --    0.22345   0.23078   0.23800   0.25492   0.26591
 Alpha virt. eigenvalues --    0.28477   0.29174   0.29933   0.29980   0.30447
 Alpha virt. eigenvalues --    0.31370   0.31801   0.32309   0.32530   0.33540
 Alpha virt. eigenvalues --    0.34019   0.34976   0.36007   0.37502   0.37999
 Alpha virt. eigenvalues --    0.38536   0.38878   0.39602   0.42561   0.43385
 Alpha virt. eigenvalues --    0.44123   0.45694   0.46219   0.50501   0.51162
 Alpha virt. eigenvalues --    0.51652   0.52484   0.54446   0.56507   0.57029
 Alpha virt. eigenvalues --    0.57593   0.57904   0.59253   0.59376   0.59416
 Alpha virt. eigenvalues --    0.60380   0.60527   0.60646   0.62892   0.64024
 Alpha virt. eigenvalues --    0.64981   0.65162   0.68536   0.69169   0.73358
 Alpha virt. eigenvalues --    0.73410   0.74278   0.75849   0.76888   0.78096
 Alpha virt. eigenvalues --    0.80754   0.82456   0.84896   0.87231   0.87692
 Alpha virt. eigenvalues --    0.89298   0.90730   0.92791   0.94490   0.95792
 Alpha virt. eigenvalues --    1.02622   1.03845   1.04705   1.04812   1.05059
 Alpha virt. eigenvalues --    1.05975   1.06657   1.11470   1.16019   1.16889
 Alpha virt. eigenvalues --    1.17449   1.22127   1.23104   1.25523   1.31844
 Alpha virt. eigenvalues --    1.32987   1.34062   1.35621   1.38283   1.38848
 Alpha virt. eigenvalues --    1.40623   1.43807   1.45088   1.46629   1.47164
 Alpha virt. eigenvalues --    1.48535   1.48980   1.50238   1.52364   1.52563
 Alpha virt. eigenvalues --    1.55427   1.56364   1.59429   1.60098   1.60919
 Alpha virt. eigenvalues --    1.61179   1.61466   1.63150   1.67562   1.68371
 Alpha virt. eigenvalues --    1.69380   1.69774   1.71010   1.76274   1.76288
 Alpha virt. eigenvalues --    1.77075   1.79060   1.81031   1.85428   1.86394
 Alpha virt. eigenvalues --    1.88509   1.90962   1.94041   1.94541   1.95705
 Alpha virt. eigenvalues --    1.97744   1.97837   1.98352   1.99721   2.01447
 Alpha virt. eigenvalues --    2.04349   2.06904   2.09464   2.11038   2.14157
 Alpha virt. eigenvalues --    2.16040   2.29021   2.29857   2.33113   2.34776
 Alpha virt. eigenvalues --    2.43409   2.43457   2.44679   2.47267   2.47822
 Alpha virt. eigenvalues --    2.52287   2.52530   2.52668   2.57766   2.61280
 Alpha virt. eigenvalues --    2.65609   2.67008   2.68720   2.71707   2.72023
 Alpha virt. eigenvalues --    2.73419   2.73848   2.74116   2.76583   2.78797
 Alpha virt. eigenvalues --    2.83463   2.84917   2.86699   2.89628   2.93440
 Alpha virt. eigenvalues --    2.93659   2.94589   2.97612   3.00128   3.14179
 Alpha virt. eigenvalues --    3.18430   3.26273   3.38470   3.38931   3.42977
 Alpha virt. eigenvalues --    3.48105   3.52459   3.55779   3.56390   3.66851
 Alpha virt. eigenvalues --    3.73670   3.78917   3.84194   3.91146   3.91440
 Alpha virt. eigenvalues --    3.91556   3.91768   3.93423   4.02162   4.02767
 Alpha virt. eigenvalues --    4.07098   4.08650   4.14424   4.14664   4.15752
 Alpha virt. eigenvalues --    4.17283   4.17775   4.18378   4.21674   4.85262
 Alpha virt. eigenvalues --    4.90702   4.91694   4.93354   5.10581   5.21517
 Alpha virt. eigenvalues --    5.80019   6.43805   6.44521   6.50010   6.50233
 Alpha virt. eigenvalues --    6.58346   6.59246   6.81346   6.91907   6.96167
 Alpha virt. eigenvalues --   23.68723  23.99219  24.01717  24.04705  24.15441
 Alpha virt. eigenvalues --   24.16639  24.27315  50.04946  66.91821  66.93758
 Alpha virt. eigenvalues --   66.95601
          Condensed to atoms (all electrons):
               1          2          3          4          5          6
     1  C   14.584322  -1.883129  -2.864356  -0.313070  -2.357048  -1.151673
     2  C   -1.883129  14.007344   2.573479  -0.840117  -0.958678  -7.089025
     3  C   -2.864356   2.573479   7.441635   0.442219  -0.340480  -1.306589
     4  C   -0.313070  -0.840117   0.442219   6.852232   0.372237  -0.651423
     5  C   -2.357048  -0.958678  -0.340480   0.372237   7.034425   2.199587
     6  C   -1.151673  -7.089025  -1.306589  -0.651423   2.199587  13.804383
     7  F    0.439920  -0.245576  -0.037217   0.011583  -0.033838  -0.238861
     8  H   -0.072550   0.470389  -0.061949  -0.009180   0.013077  -0.020433
     9  H   -0.033127  -0.021525   0.417453  -0.090309   0.016508   0.031438
    10  H    0.047394  -0.017411  -0.084960   0.481273  -0.081869  -0.013556
    11  H   -0.027104   0.036478   0.015528  -0.091957   0.412300  -0.025751
    12  H   -0.072817  -0.021572   0.011117  -0.006133  -0.057904   0.466538
    13  O    0.071307  -0.022886  -0.001121  -0.000501  -0.000712  -0.020739
    14  C    0.000542  -0.002231  -0.000052   0.000005  -0.000095  -0.002238
    15  H   -0.000718   0.000226   0.000031  -0.000024   0.000029   0.000219
    16  H   -0.000718   0.000226   0.000031  -0.000024   0.000029   0.000219
    17  H    0.010435  -0.002770  -0.000080  -0.004474   0.000508  -0.001987
    18  F    0.159284  -0.044474  -0.025191   0.009839  -0.023923  -0.042625
    19  H    0.010435  -0.002770  -0.000080  -0.004474   0.000508  -0.001987
    20  F    0.159284  -0.044474  -0.025191   0.009839  -0.023923  -0.042625
               7          8          9         10         11         12
     1  C    0.439920  -0.072550  -0.033127   0.047394  -0.027104  -0.072817
     2  C   -0.245576   0.470389  -0.021525  -0.017411   0.036478  -0.021572
     3  C   -0.037217  -0.061949   0.417453  -0.084960   0.015528   0.011117
     4  C    0.011583  -0.009180  -0.090309   0.481273  -0.091957  -0.006133
     5  C   -0.033838   0.013077   0.016508  -0.081869   0.412300  -0.057904
     6  C   -0.238861  -0.020433   0.031438  -0.013556  -0.025751   0.466538
     7  F    9.219255  -0.015001  -0.001214   0.000607  -0.001337  -0.014453
     8  H   -0.015001   0.492750  -0.005133   0.000992   0.001370   0.001361
     9  H   -0.001214  -0.005133   0.480915  -0.010931   0.001574   0.001264
    10  H    0.000607   0.000992  -0.010931   0.498328  -0.010492   0.000977
    11  H   -0.001337   0.001370   0.001574  -0.010492   0.479349  -0.004334
    12  H   -0.014453   0.001361   0.001264   0.000977  -0.004334   0.490141
    13  O    0.003947   0.001626   0.000022  -0.000003   0.000020   0.001677
    14  C    0.000876  -0.000296   0.000005   0.000001   0.000005  -0.000272
    15  H   -0.000464  -0.000020   0.000003  -0.000000   0.000003  -0.000022
    16  H   -0.000464  -0.000020   0.000003  -0.000000   0.000003  -0.000022
    17  H    0.016389  -0.000906   0.000292  -0.000143   0.000285  -0.000903
    18  F   -0.006861  -0.000825  -0.000882   0.000153  -0.000879  -0.000862
    19  H    0.016389  -0.000906   0.000292  -0.000143   0.000285  -0.000903
    20  F   -0.006861  -0.000825  -0.000882   0.000153  -0.000879  -0.000862
              13         14         15         16         17         18
     1  C    0.071307   0.000542  -0.000718  -0.000718   0.010435   0.159284
     2  C   -0.022886  -0.002231   0.000226   0.000226  -0.002770  -0.044474
     3  C   -0.001121  -0.000052   0.000031   0.000031  -0.000080  -0.025191
     4  C   -0.000501   0.000005  -0.000024  -0.000024  -0.004474   0.009839
     5  C   -0.000712  -0.000095   0.000029   0.000029   0.000508  -0.023923
     6  C   -0.020739  -0.002238   0.000219   0.000219  -0.001987  -0.042625
     7  F    0.003947   0.000876  -0.000464  -0.000464   0.016389  -0.006861
     8  H    0.001626  -0.000296  -0.000020  -0.000020  -0.000906  -0.000825
     9  H    0.000022   0.000005   0.000003   0.000003   0.000292  -0.000882
    10  H   -0.000003   0.000001  -0.000000  -0.000000  -0.000143   0.000153
    11  H    0.000020   0.000005   0.000003   0.000003   0.000285  -0.000879
    12  H    0.001677  -0.000272  -0.000022  -0.000022  -0.000903  -0.000862
    13  O    8.125003   0.253345  -0.092166  -0.092166   0.000771  -0.001246
    14  C    0.253345   4.938696   0.403730   0.403730   0.001528  -0.001072
    15  H   -0.092166   0.403730   0.667415  -0.105348  -0.000249   0.000111
    16  H   -0.092166   0.403730  -0.105348   0.667415   0.000202  -0.000102
    17  H    0.000771   0.001528  -0.000249   0.000202   0.411280   0.311914
    18  F   -0.001246  -0.001072   0.000111  -0.000102   0.311914   8.915221
    19  H    0.000771   0.001528   0.000202  -0.000249  -0.005089   0.001688
    20  F   -0.001246  -0.001072  -0.000102   0.000111   0.001688  -0.000210
              19         20
     1  C    0.010435   0.159284
     2  C   -0.002770  -0.044474
     3  C   -0.000080  -0.025191
     4  C   -0.004474   0.009839
     5  C    0.000508  -0.023923
     6  C   -0.001987  -0.042625
     7  F    0.016389  -0.006861
     8  H   -0.000906  -0.000825
     9  H    0.000292  -0.000882
    10  H   -0.000143   0.000153
    11  H    0.000285  -0.000879
    12  H   -0.000903  -0.000862
    13  O    0.000771  -0.001246
    14  C    0.001528  -0.001072
    15  H    0.000202  -0.000102
    16  H   -0.000249   0.000111
    17  H   -0.005089   0.001688
    18  F    0.001688  -0.000210
    19  H    0.411280   0.311914
    20  F    0.311914   8.915221
 Mulliken charges:
               1
     1  C   -0.706612
     2  C    0.108499
     3  C   -0.154225
     4  C   -0.167541
     5  C   -0.170737
     6  C    0.107131
     7  F   -0.106817
     8  H    0.206479
     9  H    0.214235
    10  H    0.189629
    11  H    0.215536
    12  H    0.207987
    13  O   -0.225702
    14  C    0.003337
    15  H    0.127147
    16  H    0.127147
    17  H    0.261310
    18  F   -0.249056
    19  H    0.261310
    20  F   -0.249056
 Sum of Mulliken charges =  -0.00000
 Mulliken charges with hydrogens summed into heavy atoms:
               1
     1  C   -0.706612
     2  C    0.314978
     3  C    0.060009
     4  C    0.022088
     5  C    0.044799
     6  C    0.315118
     7  F   -0.106817
    13  O   -0.225702
    14  C    0.257630
    18  F    0.012254
    20  F    0.012254
 Electronic spatial extent (au):  <R**2>=           2673.3343
 Charge=             -0.0000 electrons
 Dipole moment (field-independent basis, Debye):
    X=              0.0015    Y=              0.7547    Z=             -0.0000  Tot=              0.7547
 Quadrupole moment (field-independent basis, Debye-Ang):
   XX=            -56.7306   YY=            -33.8009   ZZ=            -84.9546
   XY=              0.1230   XZ=             -0.0000   YZ=             -0.0000
 Traceless Quadrupole moment (field-independent basis, Debye-Ang):
   XX=              1.7648   YY=             24.6944   ZZ=            -26.4592
   XY=              0.1230   XZ=             -0.0000   YZ=             -0.0000
 Octapole moment (field-independent basis, Debye-Ang**2):
  XXX=             -0.1712  YYY=            125.0322  ZZZ=              0.0000  XYY=             -0.1422
  XXY=              0.5525  XXZ=              0.0000  XZZ=             -0.0547  YZZ=             10.8230
  YYZ=              0.0000  XYZ=             -0.0000
 Hexadecapole moment (field-independent basis, Debye-Ang**3):
 XXXX=           -275.1335 YYYY=          -1634.3339 ZZZZ=           -758.2109 XXXY=              0.8895
 XXXZ=              0.0000 YYYX=              1.4291 YYYZ=              0.0000 ZZZX=             -0.0000
 ZZZY=              0.0000 XXYY=           -425.8737 XXZZ=           -158.0019 YYZZ=           -527.5723
 XXYZ=             -0.0000 YYXZ=             -0.0000 ZZXY=              0.4899
 N-N= 5.867978297629D+02 E-N=-2.698168184322D+03  KE= 6.448402786371D+02
 Symmetry A'   KE= 5.251763972870D+02
 Symmetry A"   KE= 1.196638813501D+02
 1\1\GINC-R820\POpt\RM062X\6-311++G(d,p)\C7H9F3O1\ZJXU\28-Mar-2024\1\\#
  m062x 6-311++G(d,p) opt=z-matrix\\test\\0,1\C\C,1,d1\C,2,d2,1,120.\C,
 3,d3,2,120.,1,0.,0\C,4,d4,3,120.,2,0.,0\C,5,d5,4,120.,3,0.,0\F,1,d6,2,
 120.,3,180.,0\H,2,d7,3,120.,4,180.,0\H,3,d8,4,120.,5,180.,0\H,4,d9,5,1
 20.,6,180.,0\H,5,d10,6,120.,1,180.,0\H,6,d11,1,120.,2,180.,0\O,7,d12,1
 ,179.9,3,180.,0\C,13,d13,1,179.9,2,180.,0\H,14,d14,1,120.,2,90.,0\H,14
 ,d15,1,120.,2,-90.,0\H,7,d16,1,100.,2,90.,0\F,17,d17,7,160.,1,0.,0\H,7
 ,d18,1,100.,2,-90.,0\F,19,d19,7,160.,1,0.,0\\d1=1.37541811\d2=1.381062
 09\d3=1.38564293\d4=1.39482478\d5=1.39893034\d6=1.36949371\d7=1.083878
 02\d8=1.08253295\d9=1.08295896\d10=1.08242512\d11=1.08300721\d12=2.633
 69859\d13=1.20044184\d14=1.1026589\d15=1.1026589\d16=1.89069782\d17=0.
 92280738\d18=1.89069782\d19=0.92280738\\Version=ES64L-G16RevB.01\State
 =1-A'\HF=-646.8298973\RMSD=3.322e-09\RMSF=4.345e-03\Dipole=-0.2568493,
 0.,-0.1489831\Quadrupole=14.0185763,-19.6717819,5.6532056,0.,7.4275923
 ,0.\PG=CS [SG(C7H5F1O1),X(H4F2)]\\@


 NOTHING MAKES A PERSON MORE PRODUCTIVE THAN THE LAST MINUTE.
 Job cpu time:       0 days  1 hours  3 minutes 52.1 seconds.
 Elapsed time:       0 days  0 hours 31 minutes 57.8 seconds.
 File lengths (MBytes):  RWF=     62 Int=      0 D2E=      0 Chk=      8 Scr=      1
 Normal termination of Gaussian 16 at Thu Mar 28 13:26:54 2024.
