 Entering Gaussian System, Link 0=g16
 Input=model_H3.gjf
 Output=model_H3.log
 Initial command:
 /home/zjxu/prog/g16/l1.exe "/home/zjxu/zjhan/5_model/HF/H3/chloroform/Gau-49265.inp" -scrdir="/home/zjxu/zjhan/5_model/HF/H3/chloroform/"
 Entering Link 1 = /home/zjxu/prog/g16/l1.exe PID=     49266.
  
 Copyright (c) 1988-2017, Gaussian, Inc.  All Rights Reserved.
  
 This is part of the Gaussian(R) 16 program.  It is based on
 the Gaussian(R) 09 system (copyright 2009, Gaussian, Inc.),
 the Gaussian(R) 03 system (copyright 2003, Gaussian, Inc.),
 the Gaussian(R) 98 system (copyright 1998, Gaussian, Inc.),
 the Gaussian(R) 94 system (copyright 1995, Gaussian, Inc.),
 the Gaussian 92(TM) system (copyright 1992, Gaussian, Inc.),
 the Gaussian 90(TM) system (copyright 1990, Gaussian, Inc.),
 the Gaussian 88(TM) system (copyright 1988, Gaussian, Inc.),
 the Gaussian 86(TM) system (copyright 1986, Carnegie Mellon
 University), and the Gaussian 82(TM) system (copyright 1983,
 Carnegie Mellon University). Gaussian is a federally registered
 trademark of Gaussian, Inc.
  
 This software contains proprietary and confidential information,
 including trade secrets, belonging to Gaussian, Inc.
  
 This software is provided under written license and may be
 used, copied, transmitted, or stored only in accord with that
 written license.
  
 The following legend is applicable only to US Government
 contracts under FAR:
  
                    RESTRICTED RIGHTS LEGEND
  
 Use, reproduction and disclosure by the US Government is
 subject to restrictions as set forth in subparagraphs (a)
 and (c) of the Commercial Computer Software - Restricted
 Rights clause in FAR 52.227-19.
  
 Gaussian, Inc.
 340 Quinnipiac St., Bldg. 40, Wallingford CT 06492
  
  
 ---------------------------------------------------------------
 Warning -- This program may not be used in any manner that
 competes with the business of Gaussian, Inc. or will provide
 assistance to any competitor of Gaussian, Inc.  The licensee
 of this program is prohibited from giving any competitor of
 Gaussian, Inc. access to this program.  By using this program,
 the user acknowledges that Gaussian, Inc. is engaged in the
 business of creating and licensing software in the field of
 computational chemistry and represents and warrants to the
 licensee that it is not a competitor of Gaussian, Inc. and that
 it will not use this program in any manner prohibited above.
 ---------------------------------------------------------------
  

 Cite this work as:
 Gaussian 16, Revision B.01,
 M. J. Frisch, G. W. Trucks, H. B. Schlegel, G. E. Scuseria, 
 M. A. Robb, J. R. Cheeseman, G. Scalmani, V. Barone, 
 G. A. Petersson, H. Nakatsuji, X. Li, M. Caricato, A. V. Marenich, 
 J. Bloino, B. G. Janesko, R. Gomperts, B. Mennucci, H. P. Hratchian, 
 J. V. Ortiz, A. F. Izmaylov, J. L. Sonnenberg, D. Williams-Young, 
 F. Ding, F. Lipparini, F. Egidi, J. Goings, B. Peng, A. Petrone, 
 T. Henderson, D. Ranasinghe, V. G. Zakrzewski, J. Gao, N. Rega, 
 G. Zheng, W. Liang, M. Hada, M. Ehara, K. Toyota, R. Fukuda, 
 J. Hasegawa, M. Ishida, T. Nakajima, Y. Honda, O. Kitao, H. Nakai, 
 T. Vreven, K. Throssell, J. A. Montgomery, Jr., J. E. Peralta, 
 F. Ogliaro, M. J. Bearpark, J. J. Heyd, E. N. Brothers, K. N. Kudin, 
 V. N. Staroverov, T. A. Keith, R. Kobayashi, J. Normand, 
 K. Raghavachari, A. P. Rendell, J. C. Burant, S. S. Iyengar, 
 J. Tomasi, M. Cossi, J. M. Millam, M. Klene, C. Adamo, R. Cammi, 
 J. W. Ochterski, R. L. Martin, K. Morokuma, O. Farkas, 
 J. B. Foresman, and D. J. Fox, Gaussian, Inc., Wallingford CT, 2016.
 
 ******************************************
 Gaussian 16:  ES64L-G16RevB.01 20-Dec-2017
                17-Jun-2024 
 ******************************************
 %mem=4GB
 %nproc=4
 Will use up to    4 processors via shared memory.
 %chk=model_H3
 ------------------------------------------------------------
 # m062x 6-311++G(d,p) opt=z-matrix scrf=(solvent=chloroform)
 ------------------------------------------------------------
 1/10=7,18=40,26=3,38=1/1,3;
 2/12=2,17=6,18=5,29=3,40=1/2;
 3/5=4,6=6,7=1111,11=2,25=1,30=1,70=2201,71=1,72=7,74=-55/1,2,3;
 4//1;
 5/5=2,38=5,53=7/2;
 6/7=2,8=2,9=2,10=2,28=1/1;
 7/29=1/1,2,3,16;
 1/10=7,18=40,26=3/3(2);
 2/29=3/2;
 99//99;
 2/29=3/2;
 3/5=4,6=6,7=1111,11=2,25=1,30=1,70=2205,71=1,72=7,74=-55/1,2,3;
 4/5=5,16=3,69=1/1;
 5/5=2,38=5,53=7/2;
 7//1,2,3,16;
 1/18=40,26=3/3(-5);
 2/29=3/2;
 6/7=2,8=2,9=2,10=2,19=2,28=1/1;
 99/9=1/99;
 ----
 test
 ----
 Symbolic Z-matrix:
 Charge =  0 Multiplicity = 1
 C1
 C2                   1    d1
 C3                   2    d2       1     120. 
 C4                   3    d3       2     120.     1     0.       0
 C5                   4    d4       3     120.     2     0.       0
 C6                   5    d5       4     120.     3     0.       0
 F7                   1    d6       2     120.     3     180.     0
 H8                   2    d7       3     120.     4     180.     0
 H9                   3    d8       4     120.     5     180.     0
 H10                  4    d9       5     120.     6     180.     0
 H11                  5    d10      6     120.     1     180.     0
 H12                  6    d11      1     120.     2     180.     0
 O13                  7    d12      1     179.9    3     180.     0
 C14                  13   d13      1     179.9    2     180.     0
 H15                  14   d14      1     120.     2     90.      0
 H16                  14   d15      1     120.     2    -90.      0
 H17                  7    d16      1     100.     2     90.      0
 F18                  17   d17      7     160.     1     0.       0
 H19                  7    d18      1     100.     2    -30.      0
 F20                  19   d19      7     160.     1     0.       0
 H21                  7    d20      1     100.     2    -150.     0
 F22                  21   d21      7     160.     1     0.       0
       Variables:
  d1                    1.3                      
  d2                    1.3                      
  d3                    1.3                      
  d4                    1.3                      
  d5                    1.3                      
  d6                    1.4                      
  d7                    1.                       
  d8                    1.                       
  d9                    1.                       
  d10                   1.                       
  d11                   1.                       
  d12                   2.8                      
  d13                   1.2                      
  d14                   1.                       
  d15                   1.                       
  d16                   2.3                      
  d17                   0.9                      
  d18                   2.3                      
  d19                   0.9                      
  d20                   2.3                      
  d21                   0.9                      
 

 GradGradGradGradGradGradGradGradGradGradGradGradGradGradGradGradGradGrad
 Berny optimization.
 Initialization pass.
                       ----------------------------
                       !    Initial Parameters    !
                       ! (Angstroms and Degrees)  !
 ----------------------                            ----------------------
 !      Name          Value   Derivative information (Atomic Units)     !
 ------------------------------------------------------------------------
 !       d1          1.3      estimate D2E/DX2                          !
 !       d2          1.3      estimate D2E/DX2                          !
 !       d3          1.3      estimate D2E/DX2                          !
 !       d4          1.3      estimate D2E/DX2                          !
 !       d5          1.3      estimate D2E/DX2                          !
 !       d6          1.4      estimate D2E/DX2                          !
 !       d7          1.0      estimate D2E/DX2                          !
 !       d8          1.0      estimate D2E/DX2                          !
 !       d9          1.0      estimate D2E/DX2                          !
 !       d10         1.0      estimate D2E/DX2                          !
 !       d11         1.0      estimate D2E/DX2                          !
 !       d12         2.8      estimate D2E/DX2                          !
 !       d13         1.2      estimate D2E/DX2                          !
 !       d14         1.0      estimate D2E/DX2                          !
 !       d15         1.0      estimate D2E/DX2                          !
 !       d16         2.3      estimate D2E/DX2                          !
 !       d17         0.9      estimate D2E/DX2                          !
 !       d18         2.3      estimate D2E/DX2                          !
 !       d19         0.9      estimate D2E/DX2                          !
 !       d20         2.3      estimate D2E/DX2                          !
 !       d21         0.9      estimate D2E/DX2                          !
 ------------------------------------------------------------------------
 Trust Radius=3.00D-01 FncErr=1.00D-07 GrdErr=1.00D-06 EigMax=2.50D+02 EigMin=1.00D-04
 Number of steps in this run=     31 maximum allowed number of steps=    100.
 GradGradGradGradGradGradGradGradGradGradGradGradGradGradGradGradGradGrad

 ---------------------------------------------------------------------------------------------------
                            Z-MATRIX (ANGSTROMS AND DEGREES)
   CD    Cent   Atom    N1       Length/X        N2       Alpha/Y        N3        Beta/Z          J
 ---------------------------------------------------------------------------------------------------
      1      1  C 
      2      2  C        1   1.300000(     1)
      3      3  C        2   1.300000(     2)      1  120.000(    22)
      4      4  C        3   1.300000(     3)      2  120.000(    23)      1    0.000(    42)      0
      5      5  C        4   1.300000(     4)      3  120.000(    24)      2    0.000(    43)      0
      6      6  C        5   1.300000(     5)      4  120.000(    25)      3    0.000(    44)      0
      7      7  F        1   1.400000(     6)      2  120.000(    26)      3  180.000(    45)      0
      8      8  H        2   1.000000(     7)      3  120.000(    27)      4  180.000(    46)      0
      9      9  H        3   1.000000(     8)      4  120.000(    28)      5  180.000(    47)      0
     10     10  H        4   1.000000(     9)      5  120.000(    29)      6  180.000(    48)      0
     11     11  H        5   1.000000(    10)      6  120.000(    30)      1  180.000(    49)      0
     12     12  H        6   1.000000(    11)      1  120.000(    31)      2  180.000(    50)      0
     13     13  O        7   2.800000(    12)      1  179.900(    32)      3  180.000(    51)      0
     14     14  C       13   1.200000(    13)      1  179.900(    33)      2  180.000(    52)      0
     15     15  H       14   1.000000(    14)      1  120.000(    34)      2   90.000(    53)      0
     16     16  H       14   1.000000(    15)      1  120.000(    35)      2  -90.000(    54)      0
     17     17  H        7   2.300000(    16)      1  100.000(    36)      2   90.000(    55)      0
     18     18  F       17   0.900000(    17)      7  160.000(    37)      1    0.000(    56)      0
     19     19  H        7   2.300000(    18)      1  100.000(    38)      2  -30.000(    57)      0
     20     20  F       19   0.900000(    19)      7  160.000(    39)      1    0.000(    58)      0
     21     21  H        7   2.300000(    20)      1  100.000(    40)      2 -150.000(    59)      0
     22     22  F       21   0.900000(    21)      7  160.000(    41)      1    0.000(    60)      0
 ---------------------------------------------------------------------------------------------------
                         Z-Matrix orientation:                         
 ---------------------------------------------------------------------
 Center     Atomic      Atomic             Coordinates (Angstroms)
 Number     Number       Type             X           Y           Z
 ---------------------------------------------------------------------
      1          6           0        0.000000    0.000000    0.000000
      2          6           0        0.000000    0.000000    1.300000
      3          6           0        1.125833    0.000000    1.950000
      4          6           0        2.251666    0.000000    1.300000
      5          6           0        2.251666    0.000000   -0.000000
      6          6           0        1.125833    0.000000   -0.650000
      7          9           0       -1.212436   -0.000000   -0.700000
      8          1           0       -0.866025   -0.000000    1.800000
      9          1           0        1.125833   -0.000000    2.950000
     10          1           0        3.117691   -0.000000    1.800000
     11          1           0        3.117691   -0.000000   -0.500000
     12          1           0        1.125833   -0.000000   -1.650000
     13          8           0       -3.634860   -0.000000   -2.104230
     14          6           0       -4.672340   -0.000000   -2.707251
     15          1           0       -5.104965    0.866025   -2.957922
     16          1           0       -5.104965   -0.866025   -2.957922
     17          1           0       -1.558318    2.265058   -0.899695
     18          9           0       -1.422973    3.151385   -0.821554
     19          1           0       -2.539117   -1.132529    0.799098
     20          9           0       -2.787562   -1.575692    1.541985
     21          1           0       -0.577519   -1.132529   -2.598489
     22          9           0       -0.058383   -1.575692   -3.185092
 ---------------------------------------------------------------------
                    Distance matrix (angstroms):
                    1          2          3          4          5
     1  C    0.000000
     2  C    1.300000   0.000000
     3  C    2.251666   1.300000   0.000000
     4  C    2.600000   2.251666   1.300000   0.000000
     5  C    2.251666   2.600000   2.251666   1.300000   0.000000
     6  C    1.300000   2.251666   2.600000   2.251666   1.300000
     7  F    1.400000   2.338803   3.534119   4.000000   3.534119
     8  H    1.997498   1.000000   1.997498   3.157531   3.600000
     9  H    3.157531   1.997498   1.000000   1.997498   3.157531
    10  H    3.600000   3.157531   1.997498   1.000000   1.997498
    11  H    3.157531   3.600000   3.157531   1.997498   1.000000
    12  H    1.997498   3.157531   3.600000   3.157531   1.997498
    13  O    4.199999   4.980059   6.253077   6.799997   6.251317
    14  C    5.399997   6.155390   7.436988   7.999995   7.434452
    15  H    5.963218   6.703772   7.978755   8.543999   7.976172
    16  H    5.963218   6.703772   7.978755   8.543999   7.976172
    17  H    2.892800   3.521009   4.522822   4.948245   4.522822
    18  F    3.554016   4.056731   4.910107   5.285375   4.910107
    19  H    2.892800   2.825003   4.004879   4.948245   4.987262
    20  F    3.554016   3.211210   4.238390   5.285375   5.500395
    21  H    2.892800   4.100532   4.987262   4.948245   4.004879
    22  F    3.554016   4.754184   5.500395   5.285375   4.238390
                    6          7          8          9         10
     6  C    0.000000
     7  F    2.338803   0.000000
     8  H    3.157531   2.523886   0.000000
     9  H    3.600000   4.334743   2.300000   0.000000
    10  H    3.157531   5.000000   3.983717   2.300000   0.000000
    11  H    1.997498   4.334743   4.600000   3.983717   2.300000
    12  H    1.000000   2.523886   3.983717   4.600000   3.983717
    13  O    4.977849   2.800000   4.786382   6.943301   7.799997
    14  C    6.152324   3.999999   5.899436   8.100821   8.999995
    15  H    6.700697   4.582575   6.430896   8.629970   9.539387
    16  H    6.700697   4.582575   6.430896   8.629970   9.539387
    17  H    3.521009   2.300000   3.591394   5.211076   5.855246
    18  F    4.056731   3.160748   4.136902   5.536448   6.117303
    19  H    4.100532   2.300000   2.254698   4.397824   5.855246
    20  F    4.754184   3.160748   2.498336   4.447469   6.117303
    21  H    2.825003   2.300000   4.551105   5.913523   5.855246
    22  F    3.211210   3.160748   5.290202   6.443953   6.117303
                   11         12         13         14         15
    11  H    0.000000
    12  H    2.300000   0.000000
    13  O    6.940497   4.782313   0.000000
    14  C    8.096700   5.893776   1.200000   0.000000
    15  H    8.625744   6.425224   1.907878   1.000000   0.000000
    16  H    8.625744   6.425224   1.907878   1.000000   1.732051
    17  H    5.211076   3.591394   3.300517   4.253807   4.332700
    18  F    5.536448   4.136902   4.058193   4.903618   4.831563
    19  H    5.913523   4.551105   3.303421   4.257669   4.969204
    20  F    6.443953   5.290202   4.061478   4.908278   5.619742
    21  H    4.397824   2.254698   3.297612   4.249942   4.961973
    22  F    4.447469   2.498336   4.054905   4.898953   5.610845
                   16         17         18         19         20
    16  H    0.000000
    17  H    5.159329   0.000000
    18  F    5.853266   0.900000   0.000000
    19  H    4.557389   3.923195   4.714256   0.000000
    20  F    5.111080   4.714256   5.458359   0.900000   0.000000
    21  H    4.549503   3.923195   4.714256   3.923195   4.714256
    22  F    5.101296   4.714256   5.458359   4.714256   5.458359
                   21         22
    21  H    0.000000
    22  F    0.900000   0.000000
 Stoichiometry    C7H10F4O
 Framework group  C1[X(C7H10F4O)]
 Deg. of freedom    60
 Full point group                 C1      NOp   1
 Largest Abelian subgroup         C1      NOp   1
 Largest concise Abelian subgroup C1      NOp   1
                         Standard orientation:                         
 ---------------------------------------------------------------------
 Center     Atomic      Atomic             Coordinates (Angstroms)
 Number     Number       Type             X           Y           Z
 ---------------------------------------------------------------------
      1          6           0       -0.880854   -0.000042    0.000000
      2          6           0       -1.532341    1.124931    0.000000
      3          6           0       -2.832340    1.123213    0.000000
      4          6           0       -3.480852   -0.003478    0.000000
      5          6           0       -2.829365   -1.128451    0.000000
      6          6           0       -1.529366   -1.126733    0.000000
      7          9           0        0.519144    0.001807    0.000000
      8          1           0       -1.033486    1.991616    0.000000
      9          1           0       -3.333484    1.988577    0.000000
     10          1           0       -4.480851   -0.004799    0.000000
     11          1           0       -3.328221   -1.995136    0.000000
     12          1           0       -1.028223   -1.992097    0.000000
     13          8           0        3.319144    0.000620    0.000000
     14          6           0        4.519143   -0.001285    0.000000
     15          1           0        5.019143   -0.001400    0.866025
     16          1           0        5.019143   -0.001400   -0.866025
     17          1           0        0.918535    0.002335    2.265058
     18          9           0        0.762252    0.002129    3.151385
     19          1           0        0.915943    1.963931   -1.132529
     20          9           0        0.758646    2.731306   -1.575692
     21          1           0        0.921127   -1.959261   -1.132529
     22          9           0        0.765858   -2.727048   -1.575692
 ---------------------------------------------------------------------
 Rotational constants (GHZ):           0.7658531           0.4033036           0.3804359
 Standard basis: 6-311++G(d,p) (5D, 7F)
 There are   346 symmetry adapted cartesian basis functions of A   symmetry.
 There are   334 symmetry adapted basis functions of A   symmetry.
   334 basis functions,   522 primitive gaussians,   346 cartesian basis functions
    48 alpha electrons       48 beta electrons
       nuclear repulsion energy       698.7123834841 Hartrees.
 NAtoms=   22 NActive=   22 NUniq=   22 SFac= 1.00D+00 NAtFMM=   60 NAOKFM=F Big=F
 Integral buffers will be    131072 words long.
 Raffenetti 2 integral format.
 Two-electron integral symmetry is turned on.
 ------------------------------------------------------------------------------
 Polarizable Continuum Model (PCM)
 =================================
 Model                : PCM.
 Atomic radii         : UFF (Universal Force Field).
 Polarization charges : Total charges.
 Charge compensation  : None.
 Solution method      : On-the-fly selection.
 Cavity type          : Scaled VdW (van der Waals Surface) (Alpha=1.100).
 Cavity algorithm     : GePol (No added spheres)
                        Default sphere list used, NSphG=   22.
                        Lebedev-Laikov grids with approx.  5.0 points / Ang**2.
                        Smoothing algorithm: York/Karplus (Gamma=1.0000).
                        Polarization charges: spherical gaussians, with
                                              point-specific exponents (IZeta= 3).
                        Self-potential: point-specific (ISelfS= 7).
                        Self-field    : sphere-specific E.n sum rule (ISelfD= 2).
 1st derivatives      : Analytical E(r).r(x)/FMM algorithm (CHGder, D1EAlg=3).
                        Cavity 1st derivative terms included.
 Solvent              : Chloroform, Eps=   4.711300 Eps(inf)=   2.090627
 ------------------------------------------------------------------------------
 One-electron integrals computed using PRISM.
 NBasis=   334 RedAO= T EigKep=  2.92D-06  NBF=   334
 NBsUse=   333 1.00D-06 EigRej=  4.35D-07 NBFU=   333
 ExpMin= 3.60D-02 ExpMax= 1.14D+04 ExpMxC= 1.72D+03 IAcc=3 IRadAn=         5 AccDes= 0.00D+00
 Harris functional with IExCor= 1009 and IRadAn=       5 diagonalized for initial guess.
 HarFok:  IExCor= 1009 AccDes= 0.00D+00 IRadAn=         5 IDoV= 1 UseB2=F ITyADJ=14
 ICtDFT=  3500011 ScaDFX=  1.000000  1.000000  1.000000  1.000000
 FoFCou: FMM=F IPFlag=           0 FMFlag=      100000 FMFlg1=           0
         NFxFlg=           0 DoJE=T BraDBF=F KetDBF=T FulRan=T
         wScrn=  0.000000 ICntrl=       500 IOpCl=  0 I1Cent=   200000004 NGrid=           0
         NMat0=    1 NMatS0=      1 NMatT0=    0 NMatD0=    1 NMtDS0=    0 NMtDT0=    0
 Petite list used in FoFCou.
 Requested convergence on RMS density matrix=1.00D-08 within 128 cycles.
 Requested convergence on MAX density matrix=1.00D-06.
 Requested convergence on             energy=1.00D-06.
 No special actions if energy rises.
 Inv3:  Mode=1 IEnd=    15133548.
 Iteration    1 A*A^-1 deviation from unit magnitude is 6.33D-15 for   2244.
 Iteration    1 A*A^-1 deviation from orthogonality  is 3.77D-15 for   2238   2192.
 Iteration    1 A^-1*A deviation from unit magnitude is 6.55D-15 for   2244.
 Iteration    1 A^-1*A deviation from orthogonality  is 1.37D-15 for   1939    494.
 Error on total polarization charges =  0.01106
 SCF Done:  E(RM062X) =  -747.190397842     A.U. after   14 cycles
            NFock= 14  Conv=0.48D-08     -V/T= 1.9994

 **********************************************************************

            Population analysis using the SCF Density.

 **********************************************************************

 Orbital symmetries:
       Occupied  (A) (A) (A) (A) (A) (A) (A) (A) (A) (A) (A) (A)
                 (A) (A) (A) (A) (A) (A) (A) (A) (A) (A) (A) (A)
                 (A) (A) (A) (A) (A) (A) (A) (A) (A) (A) (A) (A)
                 (A) (A) (A) (A) (A) (A) (A) (A) (A) (A) (A) (A)
       Virtual   (A) (A) (A) (A) (A) (A) (A) (A) (A) (A) (A) (A)
                 (A) (A) (A) (A) (A) (A) (A) (A) (A) (A) (A) (A)
                 (A) (A) (A) (A) (A) (A) (A) (A) (A) (A) (A) (A)
                 (A) (A) (A) (A) (A) (A) (A) (A) (A) (A) (A) (A)
                 (A) (A) (A) (A) (A) (A) (A) (A) (A) (A) (A) (A)
                 (A) (A) (A) (A) (A) (A) (A) (A) (A) (A) (A) (A)
                 (A) (A) (A) (A) (A) (A) (A) (A) (A) (A) (A) (A)
                 (A) (A) (A) (A) (A) (A) (A) (A) (A) (A) (A) (A)
                 (A) (A) (A) (A) (A) (A) (A) (A) (A) (A) (A) (A)
                 (A) (A) (A) (A) (A) (A) (A) (A) (A) (A) (A) (A)
                 (A) (A) (A) (A) (A) (A) (A) (A) (A) (A) (A) (A)
                 (A) (A) (A) (A) (A) (A) (A) (A) (A) (A) (A) (A)
                 (A) (A) (A) (A) (A) (A) (A) (A) (A) (A) (A) (A)
                 (A) (A) (A) (A) (A) (A) (A) (A) (A) (A) (A) (A)
                 (A) (A) (A) (A) (A) (A) (A) (A) (A) (A) (A) (A)
                 (A) (A) (A) (A) (A) (A) (A) (A) (A) (A) (A) (A)
                 (A) (A) (A) (A) (A) (A) (A) (A) (A) (A) (A) (A)
                 (A) (A) (A) (A) (A) (A) (A) (A) (A) (A) (A) (A)
                 (A) (A) (A) (A) (A) (A) (A) (A) (A) (A) (A) (A)
                 (A) (A) (A) (A) (A) (A) (A) (A) (A) (A) (A) (A)
                 (A) (A) (A) (A) (A) (A) (A) (A) (A) (A) (A) (A)
                 (A) (A) (A) (A) (A) (A) (A) (A) (A) (A) (A) (A)
                 (A) (A) (A) (A) (A) (A) (A) (A) (A) (A) (A) (A)
                 (A) (A) (A) (A) (A) (A) (A) (A) (A)
 The electronic state is 1-A.
 Alpha  occ. eigenvalues --  -25.27894 -25.23580 -25.23580 -25.23270 -19.64426
 Alpha  occ. eigenvalues --  -10.62391 -10.62116 -10.53237 -10.53234 -10.52791
 Alpha  occ. eigenvalues --  -10.52780 -10.52034  -1.38412  -1.35445  -1.35430
 Alpha  occ. eigenvalues --   -1.35085  -1.19597  -1.03921  -0.90081  -0.89321
 Alpha  occ. eigenvalues --   -0.75512  -0.74794  -0.73391  -0.67609  -0.65308
 Alpha  occ. eigenvalues --   -0.65258  -0.64936  -0.60975  -0.60388  -0.60029
 Alpha  occ. eigenvalues --   -0.58924  -0.54816  -0.54215  -0.53747  -0.52270
 Alpha  occ. eigenvalues --   -0.52117  -0.52114  -0.51937  -0.51800  -0.51799
 Alpha  occ. eigenvalues --   -0.51489  -0.48707  -0.48001  -0.45168  -0.42791
 Alpha  occ. eigenvalues --   -0.35553  -0.34495  -0.33741
 Alpha virt. eigenvalues --   -0.01032  -0.00744   0.00622   0.01214   0.01559
 Alpha virt. eigenvalues --    0.01925   0.01954   0.02846   0.03138   0.03625
 Alpha virt. eigenvalues --    0.04538   0.05637   0.06124   0.07018   0.07487
 Alpha virt. eigenvalues --    0.08293   0.09048   0.10019   0.10610   0.11531
 Alpha virt. eigenvalues --    0.11703   0.12011   0.12775   0.13057   0.13395
 Alpha virt. eigenvalues --    0.13753   0.13838   0.14473   0.14806   0.15203
 Alpha virt. eigenvalues --    0.15620   0.16368   0.17515   0.17687   0.18175
 Alpha virt. eigenvalues --    0.18355   0.19620   0.20203   0.20488   0.20971
 Alpha virt. eigenvalues --    0.21437   0.21489   0.22340   0.24822   0.25087
 Alpha virt. eigenvalues --    0.25826   0.27230   0.27531   0.28399   0.29233
 Alpha virt. eigenvalues --    0.29806   0.29965   0.30807   0.31264   0.32276
 Alpha virt. eigenvalues --    0.32886   0.34350   0.34476   0.35055   0.36469
 Alpha virt. eigenvalues --    0.36557   0.36591   0.37771   0.38404   0.38549
 Alpha virt. eigenvalues --    0.40165   0.40884   0.41103   0.42610   0.43107
 Alpha virt. eigenvalues --    0.43982   0.44237   0.45042   0.45937   0.47725
 Alpha virt. eigenvalues --    0.51421   0.53709   0.55018   0.56104   0.56831
 Alpha virt. eigenvalues --    0.57402   0.59172   0.59505   0.59629   0.61326
 Alpha virt. eigenvalues --    0.61758   0.62283   0.63686   0.64971   0.65085
 Alpha virt. eigenvalues --    0.65900   0.67352   0.67420   0.69244   0.69931
 Alpha virt. eigenvalues --    0.72873   0.75130   0.76454   0.76728   0.77108
 Alpha virt. eigenvalues --    0.80948   0.81166   0.82476   0.84399   0.84991
 Alpha virt. eigenvalues --    0.89134   0.89489   0.92935   0.95913   0.99530
 Alpha virt. eigenvalues --    1.00316   1.00822   1.01691   1.05633   1.06473
 Alpha virt. eigenvalues --    1.07773   1.08036   1.09886   1.10703   1.16099
 Alpha virt. eigenvalues --    1.16345   1.18151   1.21016   1.21811   1.23580
 Alpha virt. eigenvalues --    1.27200   1.31351   1.32039   1.33260   1.33481
 Alpha virt. eigenvalues --    1.35010   1.35235   1.35606   1.36543   1.39557
 Alpha virt. eigenvalues --    1.40403   1.43241   1.47350   1.47987   1.49575
 Alpha virt. eigenvalues --    1.49579   1.52194   1.53057   1.53461   1.54622
 Alpha virt. eigenvalues --    1.55624   1.56826   1.56833   1.61651   1.63506
 Alpha virt. eigenvalues --    1.64830   1.66690   1.67368   1.67414   1.67907
 Alpha virt. eigenvalues --    1.71365   1.71935   1.73019   1.76520   1.76905
 Alpha virt. eigenvalues --    1.79909   1.81879   1.84923   1.85116   1.85428
 Alpha virt. eigenvalues --    1.90364   1.92364   1.93707   1.95517   1.95807
 Alpha virt. eigenvalues --    1.97222   1.98682   2.04143   2.04378   2.05218
 Alpha virt. eigenvalues --    2.06494   2.07069   2.12991   2.15237   2.17151
 Alpha virt. eigenvalues --    2.17465   2.18351   2.19674   2.21712   2.26116
 Alpha virt. eigenvalues --    2.27126   2.35989   2.36406   2.40289   2.46173
 Alpha virt. eigenvalues --    2.48129   2.50161   2.50873   2.55194   2.55217
 Alpha virt. eigenvalues --    2.56984   2.62050   2.64272   2.66767   2.70605
 Alpha virt. eigenvalues --    2.71627   2.74974   2.76466   2.77384   2.77386
 Alpha virt. eigenvalues --    2.78848   2.81073   2.85893   2.86012   2.87894
 Alpha virt. eigenvalues --    2.88181   2.90171   2.96350   2.97756   2.99198
 Alpha virt. eigenvalues --    3.03345   3.07899   3.11676   3.24094   3.26835
 Alpha virt. eigenvalues --    3.34279   3.39393   3.42032   3.54842   3.59257
 Alpha virt. eigenvalues --    3.61279   3.63989   3.74937   3.75164   3.85166
 Alpha virt. eigenvalues --    3.87538   3.88524   3.88626   3.88666   3.88758
 Alpha virt. eigenvalues --    3.89216   3.89377   3.97073   4.00152   4.02401
 Alpha virt. eigenvalues --    4.08357   4.12968   4.14070   4.14668   4.15107
 Alpha virt. eigenvalues --    4.15699   4.16048   4.16269   4.18502   4.19406
 Alpha virt. eigenvalues --    4.25829   4.25976   4.35984   4.91302   4.91370
 Alpha virt. eigenvalues --    4.91844   4.94001   4.95525   5.11652   5.23260
 Alpha virt. eigenvalues --    5.83218   6.41362   6.42489   6.42895   6.44388
 Alpha virt. eigenvalues --    6.48728   6.49302   6.50491   6.61263   6.85130
 Alpha virt. eigenvalues --    6.85683   6.86003   6.92003  23.73198  24.17103
 Alpha virt. eigenvalues --   24.26304  24.31113  24.53559  24.56773  24.72337
 Alpha virt. eigenvalues --   50.07129  66.90888  66.91538  66.91571  66.95054
          Condensed to atoms (all electrons):
               1          2          3          4          5          6
     1  C   19.818267  -1.665082  -4.276426  -1.697029  -4.278927  -1.675314
     2  C   -1.665082  19.466904   2.664916  -1.119708  -2.087345 -11.515379
     3  C   -4.276426   2.664916   9.351523   1.221727  -1.045460  -2.090462
     4  C   -1.697029  -1.119708   1.221727   7.280383   1.224737  -1.114152
     5  C   -4.278927  -2.087345  -1.045460   1.224737   9.350295   2.662770
     6  C   -1.675314 -11.515379  -2.090462  -1.114152   2.662770  19.475785
     7  F    0.447583  -0.244071  -0.038650   0.033139  -0.038937  -0.245939
     8  H   -0.318014   0.586335   0.034689  -0.002352   0.067791  -0.084831
     9  H    0.013257  -0.065623   0.451695  -0.087357  -0.023754   0.061760
    10  H    0.027992  -0.025734  -0.067435   0.509472  -0.067408  -0.025606
    11  H    0.013524   0.061926  -0.023719  -0.087394   0.451566  -0.065919
    12  H   -0.318065  -0.085204   0.067691  -0.002458   0.034482   0.587162
    13  O    0.017631  -0.008032   0.000415  -0.000129   0.000426  -0.008085
    14  C   -0.004534   0.000436   0.001027   0.000318   0.001016   0.000280
    15  H    0.001329  -0.000224  -0.000094  -0.000122  -0.000096  -0.000242
    16  H   -0.001770   0.000491   0.000160   0.000033   0.000163   0.000526
    17  H    0.012693  -0.001861  -0.002190  -0.002359  -0.002229  -0.002133
    18  F    0.201805  -0.057938  -0.031498   0.002181  -0.031467  -0.058084
    19  H   -0.019126   0.016728   0.015275   0.003842  -0.007459   0.000601
    20  F   -0.091911   0.111413   0.021025   0.000960   0.003004  -0.041051
    21  H   -0.019431   0.000524  -0.007434   0.003860   0.015313   0.017034
    22  F   -0.091471  -0.040840   0.002995   0.000894   0.020738   0.111115
               7          8          9         10         11         12
     1  C    0.447583  -0.318014   0.013257   0.027992   0.013524  -0.318065
     2  C   -0.244071   0.586335  -0.065623  -0.025734   0.061926  -0.085204
     3  C   -0.038650   0.034689   0.451695  -0.067435  -0.023719   0.067691
     4  C    0.033139  -0.002352  -0.087357   0.509472  -0.087394  -0.002458
     5  C   -0.038937   0.067791  -0.023754  -0.067408   0.451566   0.034482
     6  C   -0.245939  -0.084831   0.061760  -0.025606  -0.065919   0.587162
     7  F    9.300945  -0.012107  -0.002077   0.001485  -0.002064  -0.012178
     8  H   -0.012107   0.583709  -0.023934   0.000921   0.002268   0.000771
     9  H   -0.002077  -0.023934   0.477314  -0.014963   0.000463   0.002274
    10  H    0.001485   0.000921  -0.014963   0.490707  -0.014958   0.000918
    11  H   -0.002064   0.002268   0.000463  -0.014958   0.477306  -0.023946
    12  H   -0.012178   0.000771   0.002274   0.000918  -0.023946   0.583818
    13  O    0.007774  -0.000108   0.000029   0.000005   0.000030  -0.000127
    14  C    0.002743   0.000259  -0.000017   0.000011  -0.000017   0.000258
    15  H   -0.000499   0.000193  -0.000001  -0.000000  -0.000001   0.000197
    16  H   -0.000343  -0.000044   0.000001  -0.000001   0.000001  -0.000046
    17  H    0.014119  -0.002527   0.000427  -0.000191   0.000428  -0.002537
    18  F   -0.009464   0.001727  -0.000745   0.000207  -0.000745   0.001732
    19  H    0.014128  -0.013796   0.001379   0.000050  -0.000258   0.001553
    20  F   -0.005070   0.011438  -0.002137  -0.000088   0.000215  -0.001158
    21  H    0.014199   0.001548  -0.000259   0.000050   0.001377  -0.013790
    22  F   -0.005101  -0.001154   0.000215  -0.000089  -0.002131   0.011412
              13         14         15         16         17         18
     1  C    0.017631  -0.004534   0.001329  -0.001770   0.012693   0.201805
     2  C   -0.008032   0.000436  -0.000224   0.000491  -0.001861  -0.057938
     3  C    0.000415   0.001027  -0.000094   0.000160  -0.002190  -0.031498
     4  C   -0.000129   0.000318  -0.000122   0.000033  -0.002359   0.002181
     5  C    0.000426   0.001016  -0.000096   0.000163  -0.002229  -0.031467
     6  C   -0.008085   0.000280  -0.000242   0.000526  -0.002133  -0.058084
     7  F    0.007774   0.002743  -0.000499  -0.000343   0.014119  -0.009464
     8  H   -0.000108   0.000259   0.000193  -0.000044  -0.002527   0.001727
     9  H    0.000029  -0.000017  -0.000001   0.000001   0.000427  -0.000745
    10  H    0.000005   0.000011  -0.000000  -0.000001  -0.000191   0.000207
    11  H    0.000030  -0.000017  -0.000001   0.000001   0.000428  -0.000745
    12  H   -0.000127   0.000258   0.000197  -0.000046  -0.002537   0.001732
    13  O    8.203731   0.281811  -0.089925  -0.087931   0.006481  -0.002242
    14  C    0.281811   4.795354   0.417728   0.414599  -0.000127  -0.000051
    15  H   -0.089925   0.417728   0.671899  -0.124455  -0.000844   0.000221
    16  H   -0.087931   0.414599  -0.124455   0.671736   0.000221  -0.000129
    17  H    0.006481  -0.000127  -0.000844   0.000221   0.370257   0.332190
    18  F   -0.002242  -0.000051   0.000221  -0.000129   0.332190   8.919578
    19  H    0.006092  -0.000122  -0.000213  -0.000150   0.001459  -0.000764
    20  F   -0.001353   0.000314  -0.000102  -0.000052  -0.000720   0.000184
    21  H    0.006098  -0.000128  -0.000217  -0.000150   0.001462  -0.000764
    22  F   -0.001344   0.000325  -0.000103  -0.000055  -0.000721   0.000184
              19         20         21         22
     1  C   -0.019126  -0.091911  -0.019431  -0.091471
     2  C    0.016728   0.111413   0.000524  -0.040840
     3  C    0.015275   0.021025  -0.007434   0.002995
     4  C    0.003842   0.000960   0.003860   0.000894
     5  C   -0.007459   0.003004   0.015313   0.020738
     6  C    0.000601  -0.041051   0.017034   0.111115
     7  F    0.014128  -0.005070   0.014199  -0.005101
     8  H   -0.013796   0.011438   0.001548  -0.001154
     9  H    0.001379  -0.002137  -0.000259   0.000215
    10  H    0.000050  -0.000088   0.000050  -0.000089
    11  H   -0.000258   0.000215   0.001377  -0.002131
    12  H    0.001553  -0.001158  -0.013790   0.011412
    13  O    0.006092  -0.001353   0.006098  -0.001344
    14  C   -0.000122   0.000314  -0.000128   0.000325
    15  H   -0.000213  -0.000102  -0.000217  -0.000103
    16  H   -0.000150  -0.000052  -0.000150  -0.000055
    17  H    0.001459  -0.000720   0.001462  -0.000721
    18  F   -0.000764   0.000184  -0.000764   0.000184
    19  H    0.402272   0.329288   0.000547  -0.000494
    20  F    0.329288   8.914819  -0.000490   0.000257
    21  H    0.000547  -0.000490   0.402199   0.329337
    22  F   -0.000494   0.000257   0.329337   8.914813
 Mulliken charges:
               1
     1  C   -0.096980
     2  C    0.007370
     3  C   -0.249772
     4  C   -0.168489
     5  C   -0.249220
     6  C    0.010162
     7  F   -0.219616
     8  H    0.167218
     9  H    0.212053
    10  H    0.184656
    11  H    0.212052
    12  H    0.167238
    13  O   -0.331248
    14  C    0.088517
    15  H    0.125568
    16  H    0.127194
    17  H    0.278704
    18  F   -0.266119
    19  H    0.249169
    20  F   -0.248786
    21  H    0.249113
    22  F   -0.248783
 Sum of Mulliken charges =  -0.00000
 Mulliken charges with hydrogens summed into heavy atoms:
               1
     1  C   -0.096980
     2  C    0.174588
     3  C   -0.037719
     4  C    0.016166
     5  C   -0.037168
     6  C    0.177400
     7  F   -0.219616
    13  O   -0.331248
    14  C    0.341279
    18  F    0.012585
    20  F    0.000383
    22  F    0.000330
 Electronic spatial extent (au):  <R**2>=           3214.6377
 Charge=             -0.0000 electrons
 Dipole moment (field-independent basis, Debye):
    X=              1.0196    Y=             -0.0069    Z=             -0.0364  Tot=              1.0203
 Quadrupole moment (field-independent basis, Debye-Ang):
   XX=            -33.4948   YY=            -77.8706   ZZ=            -86.2135
   XY=              0.0082   XZ=             -0.0162   YZ=             -0.0003
 Traceless Quadrupole moment (field-independent basis, Debye-Ang):
   XX=             32.3648   YY=            -12.0110   ZZ=            -20.3539
   XY=              0.0082   XZ=             -0.0162   YZ=             -0.0003
 Octapole moment (field-independent basis, Debye-Ang**2):
  XXX=            144.1883  YYY=             -0.0625  ZZZ=            -30.2281  XYY=             -8.7224
  XXY=             -0.0258  XXZ=             -0.0446  XZZ=             12.1102  YZZ=             -0.0058
  YYZ=             29.8945  XYZ=             -0.0399
 Hexadecapole moment (field-independent basis, Debye-Ang**3):
 XXXX=          -1529.9106 YYYY=           -901.2538 ZZZZ=           -727.2055 XXXY=             -0.2824
 XXXZ=              0.0434 YYYX=              0.1154 YYYZ=              0.1831 ZZZX=            -21.4768
 ZZZY=             -0.0636 XXYY=           -510.0208 XXZZ=           -519.4565 YYZZ=           -280.7305
 XXYZ=             -0.0570 YYXZ=             21.4013 ZZXY=              0.0026
 N-N= 6.987123834841D+02 E-N=-3.163753587803D+03  KE= 7.476684483832D+02
 D1PCM: PCM CHGder 1st derivatives, ID1Alg=3 FixD1E=F DoIter=F DoCFld=F I1PDM=0.
 Calling FoFJK, ICntrl=      2127 FMM=F ISym2X=0 I1Cent= 0 IOpClX= 0 NMat=1 NMatS=1 NMatT=0.
 ***** Axes restored to original set *****
 -------------------------------------------------------------------
 Center     Atomic                   Forces (Hartrees/Bohr)
 Number     Number              X              Y              Z
 -------------------------------------------------------------------
      1        6          -0.076211012    0.000374308   -0.043998793
      2        6          -0.054566679    0.000149516    0.013606854
      3        6           0.002736971    0.000194110    0.037259928
      4        6           0.038478469   -0.000234916    0.022215427
      5        6           0.033639946    0.000194022   -0.016254296
      6        6          -0.015493033    0.000150605   -0.054062095
      7        9           0.015713975   -0.000209289    0.009073259
      8        1          -0.064594194    0.000491246    0.037325787
      9        1          -0.001896773   -0.000002298    0.073607506
     10        1           0.064164235    0.000013088    0.037045826
     11        1           0.062797018   -0.000002396   -0.038447512
     12        1           0.000030389    0.000493444   -0.074601626
     13        8           0.017001477    0.000132898    0.009804792
     14        6           0.061053893   -0.000025471    0.035580107
     15        1          -0.039003627    0.071552176   -0.022681663
     16        1          -0.038994008   -0.071551182   -0.022677304
     17        1          -0.005445301   -0.030076515   -0.003143459
     18        9           0.004573262    0.027182098    0.002641175
     19        1           0.007084954    0.014214551   -0.026719866
     20        9          -0.007783686   -0.013627772    0.023341842
     21        1          -0.019608774    0.014216570    0.019499069
     22        9           0.016322496   -0.013628793   -0.018414958
 -------------------------------------------------------------------
 Cartesian Forces:  Max     0.076211012 RMS     0.032924149
 -----------------------------------------------------------------------------------------------
                       Internal Coordinate Forces (Hartree/Bohr or radian)
  Cent   Atom   N1       Length/X         N2         Alpha/Y        N3         Beta/Z          J
 -----------------------------------------------------------------------------------------------
      1  C 
      2  C        1   0.037716(     1)
      3  C        2   0.153146(     2)      1   0.160471(    22)
      4  C        3   0.221069(     3)      2   0.415229(    23)      1   0.002276(    42)     0
      5  C        4   0.183345(     4)      3   0.450080(    24)      2   0.003123(    43)     0
      6  C        5   0.077703(     5)      4   0.251126(    25)      3   0.001345(    44)     0
      7  F        1  -0.012604(     6)      2  -0.000014(    26)      3   0.000460(    45)     0
      8  H        2   0.074603(     7)      3  -0.000053(    27)      4   0.000804(    46)     0
      9  H        3   0.073608(     8)      4   0.003584(    28)      5  -0.000004(    47)     0
     10  H        4   0.074091(     9)      5   0.000001(    29)      6   0.000021(    48)     0
     11  H        5   0.073608(    10)      6  -0.003587(    30)      1  -0.000004(    49)     0
     12  H        6   0.074602(    11)      1   0.000057(    31)      2   0.000808(    50)     0
     13  O        7  -0.000063(    12)      1  -0.000034(    32)      3  -0.000001(    51)     0
     14  C       13   0.019563(    13)      1   0.000106(    33)      2   0.000000(    52)     0
     15  H       14   0.084526(    14)      1   0.006233(    34)      2   0.000116(    53)     0
     16  H       14   0.084519(    15)      1   0.006216(    35)      2  -0.000118(    54)     0
     17  H        7  -0.002676(    16)      1   0.005674(    36)      2  -0.000006(    55)     0
     18  F       17   0.027686(    17)      7  -0.000818(    37)      1  -0.000000(    56)     0
     19  H        7  -0.002088(    18)      1   0.011645(    38)      2  -0.002917(    57)     0
     20  F       19   0.028126(    19)      7  -0.000079(    39)      1   0.000146(    58)     0
     21  H        7  -0.002091(    20)      1   0.011696(    40)      2   0.002926(    59)     0
     22  F       21   0.028129(    21)      7  -0.000076(    41)      1  -0.000146(    60)     0
 -----------------------------------------------------------------------------------------------
 Internal  Forces:  Max     0.450080343 RMS     0.101841249

 GradGradGradGradGradGradGradGradGradGradGradGradGradGradGradGradGradGrad
 Berny optimization.
 Search for a local minimum.
 Step number   1 out of a maximum of   31
 All quantities printed in internal units (Hartrees-Bohrs-Radians)
 Second derivative matrix not updated -- first step.
 ITU=  0
     Eigenvalues ---    0.02330   0.02721   0.02721   0.02721   0.45621
     Eigenvalues ---    0.47688   0.47688   0.47688   0.47688   0.47688
     Eigenvalues ---    0.47688   0.47688   0.67193   0.67193   0.67193
     Eigenvalues ---    0.70673   0.70673   0.70673   1.04823   1.12429
     Eigenvalues ---    2.01579
 RFO step:  Lambda=-1.63233971D-01 EMin= 2.33007068D-02
 Linear search not attempted -- first point.
 Maximum step size (   0.300) exceeded in Quadratic search.
    -- Step size scaled by   0.670
 Variable       Old X    -DE/DX   Delta X   Delta X   Delta X     New X
                                 (Linear)    (Quad)   (Total)
    d1        2.45664   0.03772   0.00000   0.07623   0.07623   2.53288
    d2        2.45664   0.15315   0.00000   0.08681   0.08681   2.54345
    d3        2.45664   0.22107   0.00000   0.09534   0.09534   2.55198
    d4        2.45664   0.18335   0.00000   0.10115   0.10115   2.55779
    d5        2.45664   0.07770   0.00000   0.09843   0.09843   2.55507
    d6        2.64562  -0.01260   0.00000  -0.01364  -0.01364   2.63198
    d7        1.88973   0.07460   0.00000   0.07810   0.07810   1.96783
    d8        1.88973   0.07361   0.00000   0.07706   0.07706   1.96679
    d9        1.88973   0.07409   0.00000   0.07757   0.07757   1.96729
   d10        1.88973   0.07361   0.00000   0.07706   0.07706   1.96679
   d11        1.88973   0.07460   0.00000   0.07810   0.07810   1.96783
   d12        5.29123  -0.00006   0.00000  -0.00023  -0.00023   5.29101
   d13        2.26767   0.01956   0.00000   0.01082   0.01082   2.27849
   d14        1.88973   0.08453   0.00000   0.08849   0.08849   1.97822
   d15        1.88973   0.08452   0.00000   0.08848   0.08848   1.97821
   d16        4.34637  -0.00268   0.00000  -0.00942  -0.00942   4.33695
   d17        1.70075   0.02769   0.00000   0.02133   0.02133   1.72208
   d18        4.34637  -0.00209   0.00000  -0.00735  -0.00735   4.33902
   d19        1.70075   0.02813   0.00000   0.02167   0.02167   1.72242
   d20        4.34637  -0.00209   0.00000  -0.00736  -0.00736   4.33901
   d21        1.70075   0.02813   0.00000   0.02167   0.02167   1.72242
         Item               Value     Threshold  Converged?
 Maximum Force            0.221069     0.000450     NO 
 RMS     Force            0.086754     0.000300     NO 
 Maximum Displacement     0.101145     0.001800     NO 
 RMS     Displacement     0.065465     0.001200     NO 
 Predicted change in Energy=-8.008183D-02
 GradGradGradGradGradGradGradGradGradGradGradGradGradGradGradGradGradGrad

 ---------------------------------------------------------------------------------------------------
                            Z-MATRIX (ANGSTROMS AND DEGREES)
   CD    Cent   Atom    N1       Length/X        N2       Alpha/Y        N3        Beta/Z          J
 ---------------------------------------------------------------------------------------------------
      1      1  C 
      2      2  C        1   1.340342(     1)
      3      3  C        2   1.345936(     2)      1  120.000(    22)
      4      4  C        3   1.350450(     3)      2  120.000(    23)      1    0.000(    42)      0
      5      5  C        4   1.353524(     4)      3  120.000(    24)      2    0.000(    43)      0
      6      6  C        5   1.352085(     5)      4  120.000(    25)      3    0.000(    44)      0
      7      7  F        1   1.392784(     6)      2  120.000(    26)      3  180.000(    45)      0
      8      8  H        2   1.041330(     7)      3  120.000(    27)      4  180.000(    46)      0
      9      9  H        3   1.040778(     8)      4  120.000(    28)      5  180.000(    47)      0
     10     10  H        4   1.041046(     9)      5  120.000(    29)      6  180.000(    48)      0
     11     11  H        5   1.040778(    10)      6  120.000(    30)      1  180.000(    49)      0
     12     12  H        6   1.041329(    11)      1  120.000(    31)      2  180.000(    50)      0
     13     13  O        7   2.799880(    12)      1  179.900(    32)      3  180.000(    51)      0
     14     14  C       13   1.205727(    13)      1  179.900(    33)      2  180.000(    52)      0
     15     15  H       14   1.046827(    14)      1  120.000(    34)      2   90.000(    53)      0
     16     16  H       14   1.046823(    15)      1  120.000(    35)      2  -90.000(    54)      0
     17     17  H        7   2.295018(    16)      1  100.000(    36)      2   90.000(    55)      0
     18     18  F       17   0.911286(    17)      7  160.000(    37)      1    0.000(    56)      0
     19     19  H        7   2.296113(    18)      1  100.000(    38)      2  -30.000(    57)      0
     20     20  F       19   0.911465(    19)      7  160.000(    39)      1    0.000(    58)      0
     21     21  H        7   2.296106(    20)      1  100.000(    40)      2 -150.000(    59)      0
     22     22  F       21   0.911466(    21)      7  160.000(    41)      1    0.000(    60)      0
 ---------------------------------------------------------------------------------------------------
                         Z-Matrix orientation:                         
 ---------------------------------------------------------------------
 Center     Atomic      Atomic             Coordinates (Angstroms)
 Number     Number       Type             X           Y           Z
 ---------------------------------------------------------------------
      1          6           0        0.000000    0.000000    0.000000
      2          6           0        0.000000    0.000000    1.340342
      3          6           0        1.165615    0.000000    2.013310
      4          6           0        2.335139    0.000000    1.338085
      5          6           0        2.335139    0.000000   -0.015439
      6          6           0        1.164199    0.000000   -0.691482
      7          9           0       -1.206187   -0.000000   -0.696392
      8          1           0       -0.901818   -0.000000    1.861006
      9          1           0        1.165615   -0.000000    3.054088
     10          1           0        3.236711   -0.000000    1.858608
     11          1           0        3.236479   -0.000000   -0.535828
     12          1           0        1.151324   -0.000000   -1.732731
     13          8           0       -3.628507   -0.000000   -2.100562
     14          6           0       -4.670938   -0.000000   -2.706462
     15          1           0       -5.123819    0.906579   -2.968874
     16          1           0       -5.123818   -0.906576   -2.968873
     17          1           0       -1.551320    2.260151   -0.895655
     18          9           0       -1.414277    3.157592   -0.816533
     19          1           0       -2.530626   -1.130615    0.800172
     20          9           0       -2.782236   -1.579424    1.552523
     21          1           0       -0.572346   -1.130611   -2.591666
     22          9           0       -0.046596   -1.579421   -3.185743
 ---------------------------------------------------------------------
                    Distance matrix (angstroms):
                    1          2          3          4          5
     1  C    0.000000
     2  C    1.340342   0.000000
     3  C    2.326386   1.345936   0.000000
     4  C    2.691346   2.335140   1.350450   0.000000
     5  C    2.335190   2.700188   2.341710   1.353524   0.000000
     6  C    1.354070   2.341723   2.704792   2.343126   1.352085
     7  F    1.392784   2.367102   3.601101   4.084126   3.606201
     8  H    2.067999   1.041330   2.073035   3.278923   3.741515
     9  H    3.268962   2.072579   1.040778   2.076645   3.284780
    10  H    3.732388   3.277941   2.076866   1.041046   2.079635
    11  H    3.280535   3.740964   3.284293   2.079414   1.040778
    12  H    2.080361   3.281665   3.746068   3.291098   2.085787
    13  O    4.192663   5.000588   6.317242   6.883994   6.317659
    14  C    5.398388   6.180152   7.506104   8.089714   7.505113
    15  H    5.990795   6.756090   8.074715   8.660706   8.073458
    16  H    5.990793   6.756088   8.074713   8.660704   8.073456
    17  H    2.883934   3.537592   4.577346   5.020203   4.581225
    18  F    3.554898   4.077092   4.963290   5.354521   4.966917
    19  H    2.884897   2.823852   4.051196   5.024272   5.061539
    20  F    3.556085   3.206312   4.276965   5.359859   5.580377
    21  H    2.884891   4.131168   5.050207   5.017439   4.045824
    22  F    3.556079   4.793974   5.567241   5.350911   4.268262
                    6          7          8          9         10
     6  C    0.000000
     7  F    2.370391   0.000000
     8  H    3.283842   2.575447   0.000000
     9  H    3.745570   4.437515   2.386990   0.000000
    10  H    3.286071   5.125170   4.138530   2.391362   0.000000
    11  H    2.078118   4.445567   4.782292   4.144391   2.394436
    12  H    1.041329   2.575239   4.138882   4.786840   4.152897
    13  O    4.995552   2.799880   4.809247   7.039462   7.925039
    14  C    6.173246   4.005606   5.921827   8.200566   9.130760
    15  H    6.748894   4.618864   6.478806   8.755280   9.696645
    16  H    6.748892   4.618862   6.478804   8.755278   9.696643
    17  H    3.538928   2.295018   3.623440   5.300046   5.968206
    18  F    4.078550   3.166722   4.171597   5.622094   6.225630
    19  H    4.141865   2.296113   2.248705   4.474441   5.971662
    20  F    4.806712   3.167985   2.475018   4.509413   6.230248
    21  H    2.811507   2.296106   4.605771   6.014427   5.965914
    22  F    3.190914   3.167979   5.356833   6.549772   6.222552
                   11         12         13         14         15
    11  H    0.000000
    12  H    2.404256   0.000000
    13  O    7.041053   4.793964   0.000000
    14  C    8.199933   5.903125   1.205727   0.000000
    15  H    8.754210   6.459672   1.952385   1.046827   0.000000
    16  H    8.754208   6.459670   1.952382   1.046823   1.813154
    17  H    5.306673   3.621224   3.297695   4.256680   4.346625
    18  F    5.628385   4.170386   4.064718   4.914067   4.843587
    19  H    6.026831   4.609842   3.301196   4.260952   5.008045
    20  F    6.563591   5.362869   4.068880   4.919423   5.666237
    21  H    4.473466   2.233179   3.295389   4.253224   5.000834
    22  F    4.505019   2.457809   4.062300   4.910073   5.657334
                   16         17         18         19         20
    16  H    0.000000
    17  H    5.204722   0.000000
    18  F    5.908529   0.911286   0.000000
    19  H    4.580452   3.915631   4.716852   0.000000
    20  F    5.136024   4.717103   5.470197   0.911465   0.000000
    21  H    4.572568   3.915624   4.716846   3.916558   4.717982
    22  F    5.126201   4.717098   5.470192   4.717982   5.471279
                   21         22
    21  H    0.000000
    22  F    0.911466   0.000000
 Stoichiometry    C7H10F4O
 Framework group  C1[X(C7H10F4O)]
 Deg. of freedom    60
 Full point group                 C1      NOp   1
 Largest Abelian subgroup         C1      NOp   1
 Largest concise Abelian subgroup C1      NOp   1
                         Standard orientation:                         
 ---------------------------------------------------------------------
 Center     Atomic      Atomic             Coordinates (Angstroms)
 Number     Number       Type             X           Y           Z
 ---------------------------------------------------------------------
      1          6           0       -0.857998    0.005334    0.000097
      2          6           0       -1.527223    1.166649    0.000077
      3          6           0       -2.873159    1.167745    0.000027
      4          6           0       -3.549336   -0.001228   -0.000003
      5          6           0       -2.873529   -1.173965    0.000017
      6          6           0       -1.521444   -1.175066    0.000067
      7          9           0        0.534786    0.004200    0.000148
      8          1           0       -1.005824    2.068043    0.000100
      9          1           0       -3.392813    2.069509    0.000011
     10          1           0       -4.590381   -0.000381   -0.000042
     11          1           0       -3.394652   -2.074881   -0.000006
     12          1           0       -0.990399   -2.070810    0.000083
     13          8           0        3.334658   -0.002967    0.000252
     14          6           0        4.540376   -0.007458    0.000297
     15          1           0        5.063754   -0.008703    0.906895
     16          1           0        5.063820   -0.008695   -0.906259
     17          1           0        0.933228    0.003866    2.260314
     18          9           0        0.774952    0.003991    3.157750
     19          1           0        0.935139    1.962162   -1.130443
     20          9           0        0.777514    2.739652   -1.579254
     21          1           0        0.931948   -1.954395   -1.130457
     22          9           0        0.773057   -2.731625   -1.579275
 ---------------------------------------------------------------------
 Rotational constants (GHZ):           0.7556845           0.3969501           0.3730430
 Standard basis: 6-311++G(d,p) (5D, 7F)
 There are   346 symmetry adapted cartesian basis functions of A   symmetry.
 There are   334 symmetry adapted basis functions of A   symmetry.
   334 basis functions,   522 primitive gaussians,   346 cartesian basis functions
    48 alpha electrons       48 beta electrons
       nuclear repulsion energy       687.8984028239 Hartrees.
 NAtoms=   22 NActive=   22 NUniq=   22 SFac= 1.00D+00 NAtFMM=   60 NAOKFM=F Big=F
 Integral buffers will be    131072 words long.
 Raffenetti 2 integral format.
 Two-electron integral symmetry is turned on.
 ------------------------------------------------------------------------------
 Polarizable Continuum Model (PCM)
 =================================
 Model                : PCM.
 Atomic radii         : UFF (Universal Force Field).
 Polarization charges : Total charges.
 Charge compensation  : None.
 Solution method      : On-the-fly selection.
 Cavity type          : Scaled VdW (van der Waals Surface) (Alpha=1.100).
 Cavity algorithm     : GePol (No added spheres)
                        Default sphere list used, NSphG=   22.
                        Lebedev-Laikov grids with approx.  5.0 points / Ang**2.
                        Smoothing algorithm: York/Karplus (Gamma=1.0000).
                        Polarization charges: spherical gaussians, with
                                              point-specific exponents (IZeta= 3).
                        Self-potential: point-specific (ISelfS= 7).
                        Self-field    : sphere-specific E.n sum rule (ISelfD= 2).
 1st derivatives      : Analytical E(r).r(x)/FMM algorithm (CHGder, D1EAlg=3).
                        Cavity 1st derivative terms included.
 Solvent              : Chloroform, Eps=   4.711300 Eps(inf)=   2.090627
 ------------------------------------------------------------------------------
 One-electron integrals computed using PRISM.
 NBasis=   334 RedAO= T EigKep=  3.97D-06  NBF=   334
 NBsUse=   333 1.00D-06 EigRej=  6.08D-07 NBFU=   333
 Initial guess from the checkpoint file:  "model_H3.chk"
 B after Tr=    -0.000000    0.000000   -0.000000
         Rot=    1.000000   -0.000002    0.000015    0.000421 Ang=  -0.05 deg.
 ExpMin= 3.60D-02 ExpMax= 1.14D+04 ExpMxC= 1.72D+03 IAcc=3 IRadAn=         5 AccDes= 0.00D+00
 Harris functional with IExCor= 1009 and IRadAn=       5 diagonalized for initial guess.
 HarFok:  IExCor= 1009 AccDes= 0.00D+00 IRadAn=         5 IDoV= 1 UseB2=F ITyADJ=14
 ICtDFT=  3500011 ScaDFX=  1.000000  1.000000  1.000000  1.000000
 FoFCou: FMM=F IPFlag=           0 FMFlag=      100000 FMFlg1=           0
         NFxFlg=           0 DoJE=T BraDBF=F KetDBF=T FulRan=T
         wScrn=  0.000000 ICntrl=       500 IOpCl=  0 I1Cent=   200000004 NGrid=           0
         NMat0=    1 NMatS0=      1 NMatT0=    0 NMatD0=    1 NMtDS0=    0 NMtDT0=    0
 Petite list used in FoFCou.
 Requested convergence on RMS density matrix=1.00D-08 within 128 cycles.
 Requested convergence on MAX density matrix=1.00D-06.
 Requested convergence on             energy=1.00D-06.
 No special actions if energy rises.
 Inv3:  Mode=1 IEnd=    15595200.
 Iteration    1 A*A^-1 deviation from unit magnitude is 6.44D-15 for   2265.
 Iteration    1 A*A^-1 deviation from orthogonality  is 4.16D-15 for   2265   1800.
 Iteration    1 A^-1*A deviation from unit magnitude is 6.44D-15 for   2265.
 Iteration    1 A^-1*A deviation from orthogonality  is 2.33D-15 for   1958    505.
 Error on total polarization charges =  0.01187
 SCF Done:  E(RM062X) =  -747.266452359     A.U. after   13 cycles
            NFock= 13  Conv=0.34D-08     -V/T= 2.0015
 D1PCM: PCM CHGder 1st derivatives, ID1Alg=3 FixD1E=F DoIter=F DoCFld=F I1PDM=0.
 Calling FoFJK, ICntrl=      2127 FMM=F ISym2X=0 I1Cent= 0 IOpClX= 0 NMat=1 NMatS=1 NMatT=0.
 ***** Axes restored to original set *****
 -------------------------------------------------------------------
 Center     Atomic                   Forces (Hartrees/Bohr)
 Number     Number              X              Y              Z
 -------------------------------------------------------------------
      1        6          -0.019536145    0.000298012   -0.025918708
      2        6          -0.030056279    0.000255457    0.007722814
      3        6           0.008179705    0.000180349    0.009941395
      4        6           0.011606150   -0.000231130    0.004575648
      5        6           0.005992713    0.000176495   -0.001083661
      6        6          -0.012252976    0.000318069   -0.016872836
      7        9           0.014725412   -0.000192619    0.009332414
      8        1          -0.029093339    0.000488498    0.016792158
      9        1          -0.001549307    0.000000869    0.033075475
     10        1           0.028856958    0.000009204    0.016490881
     11        1           0.027867184    0.000003519   -0.017937069
     12        1           0.000344558    0.000531621   -0.033152015
     13        8           0.003487533    0.000144873    0.001945911
     14        6           0.036432376   -0.000025080    0.021326012
     15        1          -0.019883122    0.032039820   -0.011597549
     16        1          -0.019875246   -0.032039398   -0.011594178
     17        1          -0.003146948   -0.015297166   -0.001821236
     18        9           0.002286191    0.012542455    0.001322701
     19        1           0.002834664    0.006652169   -0.014321000
     20        9          -0.003722381   -0.006211036    0.010937531
     21        1          -0.011066570    0.006601706    0.009602315
     22        9           0.007568870   -0.006246687   -0.008767003
 -------------------------------------------------------------------
 Cartesian Forces:  Max     0.036432376 RMS     0.014987066
 -----------------------------------------------------------------------------------------------
                       Internal Coordinate Forces (Hartree/Bohr or radian)
  Cent   Atom   N1       Length/X         N2         Alpha/Y        N3         Beta/Z          J
 -----------------------------------------------------------------------------------------------
      1  C 
      2  C        1   0.020052(     1)
      3  C        2   0.057820(     2)      1   0.028347(    22)
      4  C        3   0.078049(     3)      2   0.126353(    23)      1   0.003218(    42)     0
      5  C        4   0.068547(     4)      3   0.148222(    24)      2   0.004130(    43)     0
      6  C        5   0.034819(     5)      4   0.091607(    25)      3   0.001857(    44)     0
      7  F        1  -0.011532(     6)      2  -0.002430(    26)      3   0.001053(    45)     0
      8  H        2   0.033592(     7)      3   0.000008(    27)      4   0.000832(    46)     0
      9  H        3   0.033075(     8)      4   0.003047(    28)      5   0.000001(    47)     0
     10  H        4   0.033236(     9)      5  -0.000289(    29)      6   0.000016(    48)     0
     11  H        5   0.033102(    10)      6  -0.003148(    30)      1   0.000006(    49)     0
     12  H        6   0.033145(    11)      1   0.001485(    31)      2   0.000906(    50)     0
     13  O        7  -0.000180(    12)      1  -0.000061(    32)      3  -0.000001(    51)     0
     14  C       13   0.003813(    13)      1   0.000103(    33)      2   0.000000(    52)     0
     15  H       14   0.039256(    14)      1   0.007744(    34)      2   0.000114(    53)     0
     16  H       14   0.039252(    15)      1   0.007729(    35)      2  -0.000116(    54)     0
     17  H        7  -0.002540(    16)      1   0.005594(    36)      2   0.000002(    55)     0
     18  F       17   0.012811(    17)      7  -0.000729(    37)      1  -0.000001(    56)     0
     19  H        7  -0.001910(    18)      1   0.012359(    38)      2  -0.003192(    57)     0
     20  F       19   0.013114(    19)      7   0.000056(    39)      1   0.000170(    58)     0
     21  H        7  -0.001830(    20)      1   0.013104(    40)      2   0.003496(    59)     0
     22  F       21   0.013156(    21)      7   0.000198(    41)      1  -0.000164(    60)     0
 -----------------------------------------------------------------------------------------------
 Internal  Forces:  Max     0.148222495 RMS     0.034811624

 GradGradGradGradGradGradGradGradGradGradGradGradGradGradGradGradGradGrad
 Berny optimization.
 Search for a local minimum.
 Step number   2 out of a maximum of   31
 All quantities printed in internal units (Hartrees-Bohrs-Radians)
 Update second derivatives using D2CorN and points    1    2
 DE= -7.61D-02 DEPred=-8.01D-02 R= 9.50D-01
 TightC=F SS=  1.41D+00  RLast= 3.00D-01 DXNew= 5.0454D-01 9.0000D-01
 Trust test= 9.50D-01 RLast= 3.00D-01 DXMaxT set to 5.05D-01
 ITU=  1  0
     Eigenvalues ---    0.02330   0.02719   0.02721   0.02721   0.45476
     Eigenvalues ---    0.47674   0.47688   0.47688   0.47688   0.47688
     Eigenvalues ---    0.47688   0.49644   0.67187   0.67193   0.70403
     Eigenvalues ---    0.70672   0.70673   0.70946   1.04891   1.12470
     Eigenvalues ---    2.02305
 RFO step:  Lambda=-3.63968834D-03 EMin= 2.33003218D-02
 Quartic linear search produced a step of  0.89929.
 Variable       Old X    -DE/DX   Delta X   Delta X   Delta X     New X
                                 (Linear)    (Quad)   (Total)
    d1        2.53288   0.02005   0.06856   0.00312   0.07168   2.60456
    d2        2.54345   0.05782   0.07806  -0.00857   0.06949   2.61294
    d3        2.55198   0.07805   0.08574  -0.02229   0.06345   2.61543
    d4        2.55779   0.06855   0.09096  -0.01288   0.07808   2.63587
    d5        2.55507   0.03482   0.08851  -0.00127   0.08724   2.64231
    d6        2.63198  -0.01153  -0.01226  -0.02762  -0.03988   2.59210
    d7        1.96783   0.03359   0.07024   0.01529   0.08553   2.05335
    d8        1.96679   0.03308   0.06930   0.01481   0.08411   2.05089
    d9        1.96729   0.03324   0.06975   0.01468   0.08443   2.05172
   d10        1.96679   0.03310   0.06930   0.01492   0.08422   2.05100
   d11        1.96783   0.03315   0.07023   0.01348   0.08372   2.05154
   d12        5.29101  -0.00018  -0.00020  -0.01196  -0.01217   5.27884
   d13        2.27849   0.00381   0.00973  -0.00861   0.00112   2.27961
   d14        1.97822   0.03926   0.07958   0.02217   0.10175   2.07996
   d15        1.97821   0.03925   0.07957   0.02216   0.10173   2.07994
   d16        4.33695  -0.00254  -0.00847  -0.12084  -0.12930   4.20765
   d17        1.72208   0.01281   0.01918   0.00337   0.02255   1.74463
   d18        4.33902  -0.00191  -0.00661  -0.08977  -0.09638   4.24265
   d19        1.72242   0.01311   0.01948   0.00370   0.02318   1.74560
   d20        4.33901  -0.00183  -0.00662  -0.08463  -0.09125   4.24776
   d21        1.72242   0.01316   0.01949   0.00381   0.02330   1.74572
         Item               Value     Threshold  Converged?
 Maximum Force            0.078049     0.000450     NO 
 RMS     Force            0.034518     0.000300     NO 
 Maximum Displacement     0.129302     0.001800     NO 
 RMS     Displacement     0.076122     0.001200     NO 
 Predicted change in Energy=-1.519931D-02
 GradGradGradGradGradGradGradGradGradGradGradGradGradGradGradGradGradGrad

 ---------------------------------------------------------------------------------------------------
                            Z-MATRIX (ANGSTROMS AND DEGREES)
   CD    Cent   Atom    N1       Length/X        N2       Alpha/Y        N3        Beta/Z          J
 ---------------------------------------------------------------------------------------------------
      1      1  C 
      2      2  C        1   1.378272(     1)
      3      3  C        2   1.382708(     2)      1  120.000(    22)
      4      4  C        3   1.384026(     3)      2  120.000(    23)      1    0.000(    42)      0
      5      5  C        4   1.394843(     4)      3  120.000(    24)      2    0.000(    43)      0
      6      6  C        5   1.398252(     5)      4  120.000(    25)      3    0.000(    44)      0
      7      7  F        1   1.371682(     6)      2  120.000(    26)      3  180.000(    45)      0
      8      8  H        2   1.086588(     7)      3  120.000(    27)      4  180.000(    46)      0
      9      9  H        3   1.085287(     8)      4  120.000(    28)      5  180.000(    47)      0
     10     10  H        4   1.085726(     9)      5  120.000(    29)      6  180.000(    48)      0
     11     11  H        5   1.085344(    10)      6  120.000(    30)      1  180.000(    49)      0
     12     12  H        6   1.085631(    11)      1  120.000(    31)      2  180.000(    50)      0
     13     13  O        7   2.793442(    12)      1  179.900(    32)      3  180.000(    51)      0
     14     14  C       13   1.206318(    13)      1  179.900(    33)      2  180.000(    52)      0
     15     15  H       14   1.100670(    14)      1  120.000(    34)      2   90.000(    53)      0
     16     16  H       14   1.100659(    15)      1  120.000(    35)      2  -90.000(    54)      0
     17     17  H        7   2.226594(    16)      1  100.000(    36)      2   90.000(    55)      0
     18     18  F       17   0.923219(    17)      7  160.000(    37)      1    0.000(    56)      0
     19     19  H        7   2.245111(    18)      1  100.000(    38)      2  -30.000(    57)      0
     20     20  F       19   0.923733(    19)      7  160.000(    39)      1    0.000(    58)      0
     21     21  H        7   2.247819(    20)      1  100.000(    40)      2 -150.000(    59)      0
     22     22  F       21   0.923794(    21)      7  160.000(    41)      1    0.000(    60)      0
 ---------------------------------------------------------------------------------------------------
                         Z-Matrix orientation:                         
 ---------------------------------------------------------------------
 Center     Atomic      Atomic             Coordinates (Angstroms)
 Number     Number       Type             X           Y           Z
 ---------------------------------------------------------------------
      1          6           0        0.000000    0.000000    0.000000
      2          6           0        0.000000    0.000000    1.378272
      3          6           0        1.197461    0.000000    2.069627
      4          6           0        2.396062    0.000000    1.377614
      5          6           0        2.396062    0.000000   -0.017230
      6          6           0        1.185141    0.000000   -0.716356
      7          9           0       -1.187911   -0.000000   -0.685841
      8          1           0       -0.941013   -0.000000    1.921566
      9          1           0        1.197461   -0.000000    3.154914
     10          1           0        3.336329   -0.000000    1.920477
     11          1           0        3.335998   -0.000000   -0.559902
     12          1           0        1.163337   -0.000000   -1.801767
     13          8           0       -3.604662   -0.000000   -2.086782
     14          6           0       -4.647601   -0.000000   -2.692985
     15          1           0       -5.123775    0.953208   -2.968897
     16          1           0       -5.123770   -0.953199   -2.968894
     17          1           0       -1.522755    2.192767   -0.879163
     18          9           0       -1.383918    3.101960   -0.799005
     19          1           0       -2.482932   -1.105502    0.777482
     20          9           0       -2.737929   -1.560351    1.539958
     21          1           0       -0.567400   -1.106835   -2.541258
     22          9           0       -0.034539   -1.561715   -3.143370
 ---------------------------------------------------------------------
                    Distance matrix (angstroms):
                    1          2          3          4          5
     1  C    0.000000
     2  C    1.378272   0.000000
     3  C    2.391081   1.382708   0.000000
     4  C    2.763862   2.396062   1.384026   0.000000
     5  C    2.396124   2.772822   2.406577   1.394843   0.000000
     6  C    1.384819   2.406663   2.786009   2.418892   1.398252
     7  F    1.371682   2.381533   3.644530   4.135543   3.645807
     8  H    2.139608   1.086588   2.143593   3.381117   3.859404
     9  H    3.374521   2.142514   1.085287   2.143698   3.391038
    10  H    3.849587   3.380100   2.144062   1.085726   2.153789
    11  H    3.382658   3.858160   3.389360   2.153473   1.085344
    12  H    2.144696   3.386149   3.871544   3.409996   2.168913
    13  O    4.165123   5.000019   6.351072   6.928977   6.347577
    14  C    5.371440   6.178619   7.539709   8.135291   7.534777
    15  H    5.998001   6.786719   8.139615   8.737775   8.134426
    16  H    5.997994   6.786712   8.139609   8.737768   8.134420
    17  H    2.810682   3.496144   4.571997   5.025773   4.572558
    18  F    3.489383   4.034591   4.951234   5.352390   4.951927
    19  H    2.826935   2.783529   4.054265   5.038539   5.065401
    20  F    3.507481   3.155486   4.266443   5.368326   5.587253
    21  H    2.829314   4.112146   5.059651   5.036342   4.046963
    22  F    3.510117   4.783868   5.579616   5.365265   4.256704
                    6          7          8          9         10
     6  C    0.000000
     7  F    2.373248   0.000000
     8  H    3.388091   2.619071   0.000000
     9  H    3.871289   4.521216   2.468646   0.000000
    10  H    3.403013   5.221268   4.277342   2.469533   0.000000
    11  H    2.156540   4.525662   4.944745   4.286396   2.480378
    12  H    1.085631   2.602626   4.276857   4.956798   4.310103
    13  O    4.981995   2.793442   4.812680   7.108850   8.014703
    14  C    6.158566   3.999760   5.918858   8.268172   9.221017
    15  H    6.766458   4.648867   6.505439   8.852552   9.817735
    16  H    6.766452   4.648860   6.505432   8.852545   9.817729
    17  H    3.488184   2.226594   3.604266   5.336813   6.021370
    18  F    4.028529   3.110206   4.149679   5.649703   6.268849
    19  H    4.111987   2.245111   2.215531   4.518806   6.032609
    20  F    4.787079   3.129127   2.410234   4.531012   6.283001
    21  H    2.761657   2.247819   4.613185   6.065162   6.030859
    22  F    3.133204   3.131880   5.377195   6.604934   6.280465
                   11         12         13         14         15
    11  H    0.000000
    12  H    2.502536   0.000000
    13  O    7.106625   4.776510   0.000000
    14  C    8.263649   5.878884   1.206318   0.000000
    15  H    8.847577   6.465182   1.998609   1.100670   0.000000
    16  H    8.847570   6.465175   1.998599   1.100659   1.906407
    17  H    5.340190   3.588108   3.255903   4.226445   4.344057
    18  F    5.653046   4.137173   4.026441   4.884766   4.828260
    19  H    6.072123   4.601080   3.268703   4.236987   5.024708
    20  F    6.613373   5.368585   4.042174   4.898913   5.686828
    21  H    4.515238   2.183433   3.264443   4.230384   5.018685
    22  F    4.524796   2.381965   4.037463   4.891027   5.679401
                   16         17         18         19         20
    16  H    0.000000
    17  H    5.218370   0.000000
    18  F    5.927834   0.923219   0.000000
    19  H    4.586126   3.813789   4.625568   0.000000
    20  F    5.137180   4.627601   5.388993   0.923733   0.000000
    21  H    4.578972   3.816102   4.627753   3.831879   4.644696
    22  F    5.128451   4.630070   5.391357   4.644980   5.407577
                   21         22
    21  H    0.000000
    22  F    0.923794   0.000000
 Stoichiometry    C7H10F4O
 Framework group  C1[X(C7H10F4O)]
 Deg. of freedom    60
 Full point group                 C1      NOp   1
 Largest Abelian subgroup         C1      NOp   1
 Largest concise Abelian subgroup C1      NOp   1
                         Standard orientation:                         
 ---------------------------------------------------------------------
 Center     Atomic      Atomic             Coordinates (Angstroms)
 Number     Number       Type             X           Y           Z
 ---------------------------------------------------------------------
      1          6           0       -0.826506    0.004301    0.001551
      2          6           0       -1.515830    1.197810   -0.000497
      3          6           0       -2.898538    1.197592   -0.001387
      4          6           0       -3.590363   -0.001118   -0.000221
      5          6           0       -2.892752   -1.208977    0.001852
      6          6           0       -1.494500   -1.208756    0.002751
      7          9           0        0.545175    0.004517    0.002434
      8          1           0       -0.972683    2.138907   -0.001412
      9          1           0       -3.441328    2.137391   -0.002999
     10          1           0       -4.676088   -0.001289   -0.000919
     11          1           0       -3.435276   -2.148997    0.002766
     12          1           0       -0.932766   -2.137759    0.004361
     13          8           0        3.338613    0.000082    0.004237
     14          6           0        4.544927   -0.003245    0.005018
     15          1           0        5.094648   -0.002737    0.958581
     16          1           0        5.095869   -0.005299   -0.947824
     17          1           0        0.930408    0.007525    2.195447
     18          9           0        0.769507    0.008722    3.104536
     19          1           0        0.935446    1.917876   -1.105390
     20          9           0        0.775211    2.705061   -1.561401
     21          1           0        0.936518   -1.914001   -1.101572
     22          9           0        0.776519   -2.702512   -1.555496
 ---------------------------------------------------------------------
 Rotational constants (GHZ):           0.7684149           0.3974448           0.3715525
 Standard basis: 6-311++G(d,p) (5D, 7F)
 There are   346 symmetry adapted cartesian basis functions of A   symmetry.
 There are   334 symmetry adapted basis functions of A   symmetry.
   334 basis functions,   522 primitive gaussians,   346 cartesian basis functions
    48 alpha electrons       48 beta electrons
[...]
 Center     Atomic      Atomic             Coordinates (Angstroms)
 Number     Number       Type             X           Y           Z
 ---------------------------------------------------------------------
      1          6           0       -0.793480    0.006860    0.014673
      2          6           0       -1.482624    1.199672   -0.000863
      3          6           0       -2.865269    1.199218   -0.009070
      4          6           0       -3.558211   -0.001750   -0.001665
      5          6           0       -2.860727   -1.208996    0.014059
      6          6           0       -1.462860   -1.208537    0.022356
      7          9           0        0.595877    0.007316    0.022920
      8          1           0       -0.941526    2.137474   -0.006646
      9          1           0       -3.406670    2.136308   -0.021275
     10          1           0       -4.641106   -0.002105   -0.008092
     11          1           0       -3.401582   -2.146376    0.019839
     12          1           0       -0.903144   -2.134279    0.034561
     13          8           0        3.204881    0.003620    0.038450
     14          6           0        4.409246    0.000541    0.045632
     15          1           0        4.953972    0.009018    1.002164
     16          1           0        4.965305   -0.009272   -0.904366
     17          1           0        0.912810    0.025267    1.884844
     18          9           0        0.746878    0.033947    2.794233
     19          1           0        0.960316    1.760220   -1.009450
     20          9           0        0.802414    2.543530   -1.472746
     21          1           0        0.965670   -1.786207   -0.987648
     22          9           0        0.808216   -2.578244   -1.435769
 ---------------------------------------------------------------------
 Rotational constants (GHZ):           0.8716433           0.4271835           0.3916331

 **********************************************************************

            Population analysis using the SCF Density.

 **********************************************************************

 Orbital symmetries:
       Occupied  (A) (A) (A) (A) (A) (A) (A) (A) (A) (A) (A) (A)
                 (A) (A) (A) (A) (A) (A) (A) (A) (A) (A) (A) (A)
                 (A) (A) (A) (A) (A) (A) (A) (A) (A) (A) (A) (A)
                 (A) (A) (A) (A) (A) (A) (A) (A) (A) (A) (A) (A)
       Virtual   (A) (A) (A) (A) (A) (A) (A) (A) (A) (A) (A) (A)
                 (A) (A) (A) (A) (A) (A) (A) (A) (A) (A) (A) (A)
                 (A) (A) (A) (A) (A) (A) (A) (A) (A) (A) (A) (A)
                 (A) (A) (A) (A) (A) (A) (A) (A) (A) (A) (A) (A)
                 (A) (A) (A) (A) (A) (A) (A) (A) (A) (A) (A) (A)
                 (A) (A) (A) (A) (A) (A) (A) (A) (A) (A) (A) (A)
                 (A) (A) (A) (A) (A) (A) (A) (A) (A) (A) (A) (A)
                 (A) (A) (A) (A) (A) (A) (A) (A) (A) (A) (A) (A)
                 (A) (A) (A) (A) (A) (A) (A) (A) (A) (A) (A) (A)
                 (A) (A) (A) (A) (A) (A) (A) (A) (A) (A) (A) (A)
                 (A) (A) (A) (A) (A) (A) (A) (A) (A) (A) (A) (A)
                 (A) (A) (A) (A) (A) (A) (A) (A) (A) (A) (A) (A)
                 (A) (A) (A) (A) (A) (A) (A) (A) (A) (A) (A) (A)
                 (A) (A) (A) (A) (A) (A) (A) (A) (A) (A) (A) (A)
                 (A) (A) (A) (A) (A) (A) (A) (A) (A) (A) (A) (A)
                 (A) (A) (A) (A) (A) (A) (A) (A) (A) (A) (A) (A)
                 (A) (A) (A) (A) (A) (A) (A) (A) (A) (A) (A) (A)
                 (A) (A) (A) (A) (A) (A) (A) (A) (A) (A) (A) (A)
                 (A) (A) (A) (A) (A) (A) (A) (A) (A) (A) (A) (A)
                 (A) (A) (A) (A) (A) (A) (A) (A) (A) (A) (A) (A)
                 (A) (A) (A) (A) (A) (A) (A) (A) (A) (A) (A) (A)
                 (A) (A) (A) (A) (A) (A) (A) (A) (A) (A) (A) (A)
                 (A) (A) (A) (A) (A) (A) (A) (A) (A) (A) (A) (A)
                 (A) (A) (A) (A) (A) (A) (A) (A) (A)
 The electronic state is 1-A.
 Alpha  occ. eigenvalues --  -25.30621 -25.23666 -25.23604 -25.22807 -19.65176
 Alpha  occ. eigenvalues --  -10.65384 -10.64519 -10.57080 -10.56819 -10.56757
 Alpha  occ. eigenvalues --  -10.56508 -10.56028  -1.41406  -1.34781  -1.34714
 Alpha  occ. eigenvalues --   -1.33861  -1.19863  -0.99174  -0.87348  -0.87176
 Alpha  occ. eigenvalues --   -0.73462  -0.73186  -0.72414  -0.65823  -0.65517
 Alpha  occ. eigenvalues --   -0.65000  -0.64312  -0.60317  -0.59860  -0.59318
 Alpha  occ. eigenvalues --   -0.58884  -0.54615  -0.53655  -0.53137  -0.52060
 Alpha  occ. eigenvalues --   -0.51973  -0.51903  -0.51462  -0.51189  -0.51176
 Alpha  occ. eigenvalues --   -0.50273  -0.48374  -0.46015  -0.44716  -0.42630
 Alpha  occ. eigenvalues --   -0.35499  -0.33265  -0.32896
 Alpha virt. eigenvalues --   -0.01420  -0.00539  -0.00273   0.00340   0.00539
 Alpha virt. eigenvalues --    0.01262   0.01856   0.02062   0.03073   0.03354
 Alpha virt. eigenvalues --    0.04708   0.05724   0.06110   0.06819   0.07749
 Alpha virt. eigenvalues --    0.08443   0.09188   0.10045   0.10586   0.11237
 Alpha virt. eigenvalues --    0.11611   0.12090   0.12467   0.12785   0.13134
 Alpha virt. eigenvalues --    0.13542   0.13890   0.14114   0.14273   0.15082
 Alpha virt. eigenvalues --    0.15418   0.16057   0.16937   0.17424   0.17637
 Alpha virt. eigenvalues --    0.18105   0.18908   0.19868   0.19947   0.20622
 Alpha virt. eigenvalues --    0.20709   0.21145   0.21882   0.22301   0.24411
 Alpha virt. eigenvalues --    0.25491   0.26377   0.26892   0.27655   0.28741
 Alpha virt. eigenvalues --    0.28950   0.29365   0.30005   0.30059   0.31598
 Alpha virt. eigenvalues --    0.31671   0.32287   0.33928   0.34273   0.34919
 Alpha virt. eigenvalues --    0.35872   0.35983   0.37585   0.37787   0.38247
 Alpha virt. eigenvalues --    0.38800   0.38838   0.39710   0.40642   0.42131
 Alpha virt. eigenvalues --    0.42525   0.44332   0.44931   0.46446   0.46761
 Alpha virt. eigenvalues --    0.50162   0.51788   0.53443   0.54783   0.56553
 Alpha virt. eigenvalues --    0.57108   0.57596   0.58330   0.58777   0.59546
 Alpha virt. eigenvalues --    0.60438   0.60967   0.61191   0.62385   0.62673
 Alpha virt. eigenvalues --    0.63949   0.65859   0.66326   0.67509   0.67622
 Alpha virt. eigenvalues --    0.69848   0.73287   0.74534   0.75015   0.76085
 Alpha virt. eigenvalues --    0.76177   0.77501   0.80069   0.81398   0.83977
 Alpha virt. eigenvalues --    0.87308   0.87502   0.89055   0.91104   0.92407
 Alpha virt. eigenvalues --    0.94186   0.94334   1.01615   1.03228   1.04322
 Alpha virt. eigenvalues --    1.05257   1.05915   1.06234   1.06825   1.13144
 Alpha virt. eigenvalues --    1.15077   1.16768   1.17924   1.19754   1.21867
 Alpha virt. eigenvalues --    1.23390   1.31002   1.31384   1.33077   1.34261
 Alpha virt. eigenvalues --    1.35151   1.36418   1.36928   1.37571   1.38591
 Alpha virt. eigenvalues --    1.42292   1.42805   1.45120   1.46267   1.47004
 Alpha virt. eigenvalues --    1.48815   1.50200   1.52337   1.52846   1.53615
 Alpha virt. eigenvalues --    1.55204   1.55594   1.56736   1.58929   1.59577
 Alpha virt. eigenvalues --    1.59955   1.60645   1.60908   1.62406   1.65048
 Alpha virt. eigenvalues --    1.67117   1.68753   1.69351   1.70669   1.72280
 Alpha virt. eigenvalues --    1.75369   1.77004   1.77431   1.78524   1.81350
 Alpha virt. eigenvalues --    1.85961   1.87387   1.89558   1.91061   1.93667
 Alpha virt. eigenvalues --    1.93955   1.94199   1.94907   1.96876   1.98103
 Alpha virt. eigenvalues --    2.01112   2.01688   2.03421   2.05517   2.08752
 Alpha virt. eigenvalues --    2.09548   2.10764   2.14974   2.17436   2.25531
 Alpha virt. eigenvalues --    2.26350   2.29883   2.31482   2.34688   2.37987
 Alpha virt. eigenvalues --    2.43847   2.44264   2.47342   2.48945   2.51685
 Alpha virt. eigenvalues --    2.52599   2.53406   2.57982   2.60986   2.62333
 Alpha virt. eigenvalues --    2.65363   2.66841   2.69877   2.71447   2.72549
 Alpha virt. eigenvalues --    2.72780   2.74132   2.75608   2.76035   2.76416
 Alpha virt. eigenvalues --    2.84333   2.85205   2.85286   2.88375   2.93883
 Alpha virt. eigenvalues --    2.94774   2.95203   2.98072   2.99908   3.13989
 Alpha virt. eigenvalues --    3.19807   3.22958   3.38345   3.39266   3.42577
 Alpha virt. eigenvalues --    3.47921   3.53062   3.55288   3.55999   3.66045
 Alpha virt. eigenvalues --    3.74258   3.77984   3.85163   3.88872   3.89103
 Alpha virt. eigenvalues --    3.89280   3.89399   3.89769   3.89851   3.91052
 Alpha virt. eigenvalues --    4.00043   4.02717   4.07631   4.08739   4.11441
 Alpha virt. eigenvalues --    4.12288   4.13207   4.13317   4.14276   4.14528
 Alpha virt. eigenvalues --    4.16258   4.18148   4.20705   4.85162   4.88262
 Alpha virt. eigenvalues --    4.88831   4.89901   4.90630   5.11618   5.21196
 Alpha virt. eigenvalues --    5.81255   6.42427   6.43582   6.43772   6.47784
 Alpha virt. eigenvalues --    6.49726   6.50414   6.50566   6.55280   6.85441
 Alpha virt. eigenvalues --    6.86752   6.88441   6.90879  23.68712  23.99719
 Alpha virt. eigenvalues --   24.01130  24.04684  24.15029  24.16604  24.27004
 Alpha virt. eigenvalues --   50.05714  66.91008  66.91148  66.91592  66.93506
          Condensed to atoms (all electrons):
               1          2          3          4          5          6
     1  C   15.982902  -1.894522  -3.080094  -0.992372  -2.579332  -1.230865
     2  C   -1.894522  15.752961   2.277128  -0.736516  -1.095294  -8.464072
     3  C   -3.080094   2.277128   7.757401   0.854057  -0.466226  -1.438155
     4  C   -0.992372  -0.736516   0.854057   6.470591   0.775870  -0.579882
     5  C   -2.579332  -1.095294  -0.466226   0.775870   7.346729   1.925437
     6  C   -1.230865  -8.464072  -1.438155  -0.579882   1.925437  15.602378
     7  F    0.284723  -0.205991  -0.019077   0.019392  -0.017456  -0.195843
     8  H   -0.186548   0.458994   0.013013  -0.002750   0.033185  -0.023962
     9  H    0.003306  -0.035887   0.401712  -0.056565  -0.004615   0.025283
    10  H    0.025568  -0.016290  -0.064205   0.459818  -0.062361  -0.012102
    11  H    0.007953   0.029431  -0.005145  -0.058230   0.399074  -0.040736
    12  H   -0.199865  -0.040040   0.030846   0.002664   0.017279   0.478647
    13  O    0.018511  -0.011680   0.000136   0.000420   0.000334  -0.009569
    14  C   -0.003044  -0.000447   0.000978   0.000250   0.000998   0.000279
    15  H   -0.000460   0.000218   0.000057  -0.000095   0.000057   0.000278
    16  H    0.000415  -0.000113  -0.000048   0.000036  -0.000040  -0.000083
    17  H    0.020246  -0.004149  -0.006683  -0.002328  -0.006459  -0.009549
    18  F    0.227101  -0.067019  -0.026555   0.003205  -0.024780  -0.065870
    19  H   -0.045108   0.052154   0.017427   0.007307  -0.006855  -0.021686
    20  F   -0.055300   0.078415   0.012280  -0.003249   0.002097  -0.025399
    21  H   -0.045018  -0.021912  -0.007374   0.007049   0.016656   0.054662
    22  F   -0.049793  -0.023873   0.001799  -0.003065   0.008408   0.074183
               7          8          9         10         11         12
     1  C    0.284723  -0.186548   0.003306   0.025568   0.007953  -0.199865
     2  C   -0.205991   0.458994  -0.035887  -0.016290   0.029431  -0.040040
     3  C   -0.019077   0.013013   0.401712  -0.064205  -0.005145   0.030846
     4  C    0.019392  -0.002750  -0.056565   0.459818  -0.058230   0.002664
     5  C   -0.017456   0.033185  -0.004615  -0.062361   0.399074   0.017279
     6  C   -0.195843  -0.023962   0.025283  -0.012102  -0.040736   0.478647
     7  F    9.254515  -0.002078  -0.001699   0.000732  -0.001742  -0.002135
     8  H   -0.002078   0.511413  -0.010188   0.000889   0.000898   0.000925
     9  H   -0.001699  -0.010188   0.447262  -0.008610   0.000748   0.000832
    10  H    0.000732   0.000889  -0.008610   0.469042  -0.008320   0.000873
    11  H   -0.001742   0.000898   0.000748  -0.008320   0.446312  -0.009842
    12  H   -0.002135   0.000925   0.000832   0.000873  -0.009842   0.514042
    13  O    0.009563  -0.000627  -0.000005   0.000010  -0.000006  -0.000692
    14  C    0.000999   0.000373  -0.000017   0.000008  -0.000016   0.000385
    15  H   -0.000598   0.000181   0.000002  -0.000001   0.000002   0.000192
    16  H   -0.000301  -0.000065  -0.000001  -0.000000  -0.000001  -0.000067
    17  H    0.034826  -0.003753   0.000458  -0.000198   0.000465  -0.003923
    18  F   -0.015194   0.001767  -0.000647   0.000148  -0.000635   0.001595
    19  H    0.019834  -0.011333   0.000860   0.000063  -0.000284   0.001658
    20  F   -0.006029   0.007237  -0.001266  -0.000092   0.000190  -0.000894
    21  H    0.019020   0.001663  -0.000291   0.000066   0.000880  -0.011482
    22  F   -0.005500  -0.000890   0.000192  -0.000087  -0.001348   0.007931
              13         14         15         16         17         18
     1  C    0.018511  -0.003044  -0.000460   0.000415   0.020246   0.227101
     2  C   -0.011680  -0.000447   0.000218  -0.000113  -0.004149  -0.067019
     3  C    0.000136   0.000978   0.000057  -0.000048  -0.006683  -0.026555
     4  C    0.000420   0.000250  -0.000095   0.000036  -0.002328   0.003205
     5  C    0.000334   0.000998   0.000057  -0.000040  -0.006459  -0.024780
     6  C   -0.009569   0.000279   0.000278  -0.000083  -0.009549  -0.065870
     7  F    0.009563   0.000999  -0.000598  -0.000301   0.034826  -0.015194
     8  H   -0.000627   0.000373   0.000181  -0.000065  -0.003753   0.001767
     9  H   -0.000005  -0.000017   0.000002  -0.000001   0.000458  -0.000647
    10  H    0.000010   0.000008  -0.000001  -0.000000  -0.000198   0.000148
    11  H   -0.000006  -0.000016   0.000002  -0.000001   0.000465  -0.000635
    12  H   -0.000692   0.000385   0.000192  -0.000067  -0.003923   0.001595
    13  O    8.201145   0.241039  -0.090303  -0.089788   0.008259  -0.000708
    14  C    0.241039   4.911530   0.414753   0.412659  -0.002298  -0.000201
    15  H   -0.090303   0.414753   0.623990  -0.086488  -0.000107   0.000156
    16  H   -0.089788   0.412659  -0.086488   0.622689  -0.000174  -0.000040
    17  H    0.008259  -0.002298  -0.000107  -0.000174   0.371791   0.317645
    18  F   -0.000708  -0.000201   0.000156  -0.000040   0.317645   8.924946
    19  H    0.008694  -0.000758  -0.000311  -0.000333   0.003499  -0.002545
    20  F   -0.000919   0.000397  -0.000041  -0.000102  -0.002137   0.000508
    21  H    0.008634  -0.000703  -0.000295  -0.000349   0.003466  -0.002432
    22  F   -0.000931   0.000396  -0.000044  -0.000103  -0.002064   0.000492
              19         20         21         22
     1  C   -0.045108  -0.055300  -0.045018  -0.049793
     2  C    0.052154   0.078415  -0.021912  -0.023873
     3  C    0.017427   0.012280  -0.007374   0.001799
     4  C    0.007307  -0.003249   0.007049  -0.003065
     5  C   -0.006855   0.002097   0.016656   0.008408
     6  C   -0.021686  -0.025399   0.054662   0.074183
     7  F    0.019834  -0.006029   0.019020  -0.005500
     8  H   -0.011333   0.007237   0.001663  -0.000890
     9  H    0.000860  -0.001266  -0.000291   0.000192
    10  H    0.000063  -0.000092   0.000066  -0.000087
    11  H   -0.000284   0.000190   0.000880  -0.001348
    12  H    0.001658  -0.000894  -0.011482   0.007931
    13  O    0.008694  -0.000919   0.008634  -0.000931
    14  C   -0.000758   0.000397  -0.000703   0.000396
    15  H   -0.000311  -0.000041  -0.000295  -0.000044
    16  H   -0.000333  -0.000102  -0.000349  -0.000103
    17  H    0.003499  -0.002137   0.003466  -0.002064
    18  F   -0.002545   0.000508  -0.002432   0.000492
    19  H    0.409796   0.318401   0.000780  -0.001345
    20  F    0.318401   8.930601  -0.001352   0.000576
    21  H    0.000780  -0.001352   0.409556   0.318437
    22  F   -0.001345   0.000576   0.318437   8.929877
 Mulliken charges:
               1
     1  C   -0.208404
     2  C   -0.031496
     3  C   -0.253271
     4  C   -0.165608
     5  C   -0.262706
     6  C   -0.043374
     7  F   -0.169960
     8  H    0.211655
     9  H    0.239135
    10  H    0.215048
    11  H    0.240351
    12  H    0.211069
    13  O   -0.291519
    14  C    0.022440
    15  H    0.138857
    16  H    0.142299
    17  H    0.283168
    18  F   -0.270935
    19  H    0.250085
    20  F   -0.253923
    21  H    0.250337
    22  F   -0.253248
 Sum of Mulliken charges =  -0.00000
 Mulliken charges with hydrogens summed into heavy atoms:
               1
     1  C   -0.208404
     2  C    0.180159
     3  C   -0.014136
     4  C    0.049440
     5  C   -0.022355
     6  C    0.167696
     7  F   -0.169960
    13  O   -0.291519
    14  C    0.303595
    18  F    0.012234
    20  F   -0.003838
    22  F   -0.002911
 Electronic spatial extent (au):  <R**2>=           3054.4828
 Charge=              0.0000 electrons
 Dipole moment (field-independent basis, Debye):
    X=              0.8877    Y=             -0.0072    Z=             -0.1428  Tot=              0.8991
 Quadrupole moment (field-independent basis, Debye-Ang):
   XX=            -33.7529   YY=            -76.3802   ZZ=            -86.8160
   XY=             -0.1180   XZ=              0.2858   YZ=             -0.1298
 Traceless Quadrupole moment (field-independent basis, Debye-Ang):
   XX=             31.8968   YY=            -10.7305   ZZ=            -21.1663
   XY=             -0.1180   XZ=              0.2858   YZ=             -0.1298
 Octapole moment (field-independent basis, Debye-Ang**2):
  XXX=            130.0463  YYY=              0.9354  ZZZ=            -23.3223  XYY=            -11.6443
  XXY=              0.2032  XXZ=              0.8998  XZZ=             17.2207  YZZ=             -0.5704
  YYZ=             25.3731  XYZ=              0.2417
 Hexadecapole moment (field-independent basis, Debye-Ang**3):
 XXXX=          -1562.9140 YYYY=           -834.9457 ZZZZ=           -587.2107 XXXY=             -0.8153
 XXXZ=              6.4484 YYYX=              0.2239 YYYZ=             -0.7112 ZZZX=            -16.3102
 ZZZY=              0.1600 XXYY=           -502.7111 XXZZ=           -512.1494 YYZZ=           -253.1128
 XXYZ=             -0.4654 YYXZ=             19.7733 ZZXY=             -0.7228
 N-N= 7.027490969582D+02 E-N=-3.169809003022D+03  KE= 7.450321874368D+02
 1\1\GINC-R820\POpt\RM062X\6-311++G(d,p)\C7H10F4O1\ZJXU\17-Jun-2024\1\\
 # m062x 6-311++G(d,p) opt=z-matrix scrf=(solvent=chloroform)\\test\\0,
 1\C\C,1,d1\C,2,d2,1,120.\C,3,d3,2,120.,1,0.,0\C,4,d4,3,120.,2,0.,0\C,5
 ,d5,4,120.,3,0.,0\F,1,d6,2,120.,3,180.,0\H,2,d7,3,120.,4,180.,0\H,3,d8
 ,4,120.,5,180.,0\H,4,d9,5,120.,6,180.,0\H,5,d10,6,120.,1,180.,0\H,6,d1
 1,1,120.,2,180.,0\O,7,d12,1,179.9,3,180.,0\C,13,d13,1,179.9,2,180.,0\H
 ,14,d14,1,120.,2,90.,0\H,14,d15,1,120.,2,-90.,0\H,7,d16,1,100.,2,90.,0
 \F,17,d17,7,160.,1,0.,0\H,7,d18,1,100.,2,-30.,0\F,19,d19,7,160.,1,0.,0
 \H,7,d20,1,100.,2,-150.,0\F,21,d21,7,160.,1,0.,0\\d1=1.3776653\d2=1.38
 266929\d3=1.38655978\d4=1.39433674\d5=1.39789156\d6=1.38938174\d7=1.08
 272426\d8=1.08231306\d9=1.08291437\d10=1.08223694\d11=1.08186312\d12=2
 .609053\d13=1.20439004\d14=1.10079608\d15=1.10081572\d16=1.88879073\d1
 7=0.92444443\d18=2.066706\d19=0.92366139\d20=2.09158293\d21=0.92354114
 \\Version=ES64L-G16RevB.01\State=1-A\HF=-747.2887067\RMSD=6.608e-09\RM
 SF=4.413e-03\Dipole=-0.300962,-0.0582669,-0.1765138\Quadrupole=15.7072
 179,-15.7388798,0.0316618,0.0304194,13.7723616,-0.0073124\PG=C01 [X(C7
 H10F4O1)]\\@


 AS FAR AS THE LAWS OF MATHEMATICS REFER TO REALITY,
 THEY ARE NOT CERTAIN; AND AS FAR AS THEY ARE CERTAIN,
 THEY DO NOT REFER TO REALITY.

                                         -- ALBERT EINSTEIN
 Job cpu time:       0 days  2 hours 29 minutes 17.6 seconds.
 Elapsed time:       0 days  0 hours 37 minutes 22.6 seconds.
 File lengths (MBytes):  RWF=    236 Int=      0 D2E=      0 Chk=     12 Scr=      1
 Normal termination of Gaussian 16 at Mon Jun 17 10:25:27 2024.
