 Entering Gaussian System, Link 0=g16
 Input=model_H2b.gjf
 Output=model_H2b.log
 Initial command:
 /home/zjxu/prog/g16/l1.exe "/home/zjxu/zjhan/5_model/HF/chloroform/Gau-47754.inp" -scrdir="/home/zjxu/zjhan/5_model/HF/chloroform/"
 Entering Link 1 = /home/zjxu/prog/g16/l1.exe PID=     47755.
  
 Copyright (c) 1988-2017, Gaussian, Inc.  All Rights Reserved.
  
 This is part of the Gaussian(R) 16 program.  It is based on
 the Gaussian(R) 09 system (copyright 2009, Gaussian, Inc.),
 the Gaussian(R) 03 system (copyright 2003, Gaussian, Inc.),
 the Gaussian(R) 98 system (copyright 1998, Gaussian, Inc.),
 the Gaussian(R) 94 system (copyright 1995, Gaussian, Inc.),
 the Gaussian 92(TM) system (copyright 1992, Gaussian, Inc.),
 the Gaussian 90(TM) system (copyright 1990, Gaussian, Inc.),
 the Gaussian 88(TM) system (copyright 1988, Gaussian, Inc.),
 the Gaussian 86(TM) system (copyright 1986, Carnegie Mellon
 University), and the Gaussian 82(TM) system (copyright 1983,
 Carnegie Mellon University). Gaussian is a federally registered
 trademark of Gaussian, Inc.
  
 This software contains proprietary and confidential information,
 including trade secrets, belonging to Gaussian, Inc.
  
 This software is provided under written license and may be
 used, copied, transmitted, or stored only in accord with that
 written license.
  
 The following legend is applicable only to US Government
 contracts under FAR:
  
                    RESTRICTED RIGHTS LEGEND
  
 Use, reproduction and disclosure by the US Government is
 subject to restrictions as set forth in subparagraphs (a)
 and (c) of the Commercial Computer Software - Restricted
 Rights clause in FAR 52.227-19.
  
 Gaussian, Inc.
 340 Quinnipiac St., Bldg. 40, Wallingford CT 06492
  
  
 ---------------------------------------------------------------
 Warning -- This program may not be used in any manner that
 competes with the business of Gaussian, Inc. or will provide
 assistance to any competitor of Gaussian, Inc.  The licensee
 of this program is prohibited from giving any competitor of
 Gaussian, Inc. access to this program.  By using this program,
 the user acknowledges that Gaussian, Inc. is engaged in the
 business of creating and licensing software in the field of
 computational chemistry and represents and warrants to the
 licensee that it is not a competitor of Gaussian, Inc. and that
 it will not use this program in any manner prohibited above.
 ---------------------------------------------------------------
  

 Cite this work as:
 Gaussian 16, Revision B.01,
 M. J. Frisch, G. W. Trucks, H. B. Schlegel, G. E. Scuseria, 
 M. A. Robb, J. R. Cheeseman, G. Scalmani, V. Barone, 
 G. A. Petersson, H. Nakatsuji, X. Li, M. Caricato, A. V. Marenich, 
 J. Bloino, B. G. Janesko, R. Gomperts, B. Mennucci, H. P. Hratchian, 
 J. V. Ortiz, A. F. Izmaylov, J. L. Sonnenberg, D. Williams-Young, 
 F. Ding, F. Lipparini, F. Egidi, J. Goings, B. Peng, A. Petrone, 
 T. Henderson, D. Ranasinghe, V. G. Zakrzewski, J. Gao, N. Rega, 
 G. Zheng, W. Liang, M. Hada, M. Ehara, K. Toyota, R. Fukuda, 
 J. Hasegawa, M. Ishida, T. Nakajima, Y. Honda, O. Kitao, H. Nakai, 
 T. Vreven, K. Throssell, J. A. Montgomery, Jr., J. E. Peralta, 
 F. Ogliaro, M. J. Bearpark, J. J. Heyd, E. N. Brothers, K. N. Kudin, 
 V. N. Staroverov, T. A. Keith, R. Kobayashi, J. Normand, 
 K. Raghavachari, A. P. Rendell, J. C. Burant, S. S. Iyengar, 
 J. Tomasi, M. Cossi, J. M. Millam, M. Klene, C. Adamo, R. Cammi, 
 J. W. Ochterski, R. L. Martin, K. Morokuma, O. Farkas, 
 J. B. Foresman, and D. J. Fox, Gaussian, Inc., Wallingford CT, 2016.
 
 ******************************************
 Gaussian 16:  ES64L-G16RevB.01 20-Dec-2017
                29-Mar-2024 
 ******************************************
 %mem=2GB
 %nproc=2
 Will use up to    2 processors via shared memory.
 %chk=model_H2b
 ------------------------------------------------------------
 # m062x 6-311++G(d,p) opt=z-matrix scrf=(solvent=chloroform)
 ------------------------------------------------------------
 1/10=7,18=40,26=3,38=1/1,3;
 2/12=2,17=6,18=5,29=3,40=1/2;
 3/5=4,6=6,7=1111,11=2,25=1,30=1,70=2201,71=1,72=7,74=-55/1,2,3;
 4//1;
 5/5=2,38=5,53=7/2;
 6/7=2,8=2,9=2,10=2,28=1/1;
 7/29=1/1,2,3,16;
 1/10=7,18=40,26=3/3(2);
 2/29=3/2;
 99//99;
 2/29=3/2;
 3/5=4,6=6,7=1111,11=2,25=1,30=1,70=2205,71=1,72=7,74=-55/1,2,3;
 4/5=5,16=3,69=1/1;
 5/5=2,38=5,53=7/2;
 7//1,2,3,16;
 1/18=40,26=3/3(-5);
 2/29=3/2;
 6/7=2,8=2,9=2,10=2,19=2,28=1/1;
 99/9=1/99;
 ----
 test
 ----
 Symbolic Z-matrix:
 Charge =  0 Multiplicity = 1
 C1
 C2                   1    d1
 C3                   2    d2       1     120. 
 C4                   3    d3       2     120.     1     0.       0
 C5                   4    d4       3     120.     2     0.       0
 C6                   5    d5       4     120.     3     0.       0
 F7                   1    d6       2     120.     3     180.     0
 H8                   2    d7       3     120.     4     180.     0
 H9                   3    d8       4     120.     5     180.     0
 H10                  4    d9       5     120.     6     180.     0
 H11                  5    d10      6     120.     1     180.     0
 H12                  6    d11      1     120.     2     180.     0
 O13                  7    d12      1     179.9    3     180.     0
 C14                  13   d13      1     179.9    2     180.     0
 H15                  14   d14      1     120.     2     90.      0
 H16                  14   d15      1     120.     2    -90.      0
 H17                  7    d16      1     100.     2     90.      0
 F18                  17   d17      7     160.     1     0.       0
 H19                  7    d18      1     100.     2    -90.      0
 F20                  19   d19      7     160.     1     0.       0
       Variables:
  d1                    1.3                      
  d2                    1.3                      
  d3                    1.3                      
  d4                    1.3                      
  d5                    1.3                      
  d6                    1.4                      
  d7                    1.                       
  d8                    1.                       
  d9                    1.                       
  d10                   1.                       
  d11                   1.                       
  d12                   2.8                      
  d13                   1.2                      
  d14                   1.                       
  d15                   1.                       
  d16                   2.3                      
  d17                   0.9                      
  d18                   2.3                      
  d19                   0.9                      
 

 GradGradGradGradGradGradGradGradGradGradGradGradGradGradGradGradGradGrad
 Berny optimization.
 Initialization pass.
                       ----------------------------
                       !    Initial Parameters    !
                       ! (Angstroms and Degrees)  !
 ----------------------                            ----------------------
 !      Name          Value   Derivative information (Atomic Units)     !
 ------------------------------------------------------------------------
 !       d1          1.3      estimate D2E/DX2                          !
 !       d2          1.3      estimate D2E/DX2                          !
 !       d3          1.3      estimate D2E/DX2                          !
 !       d4          1.3      estimate D2E/DX2                          !
 !       d5          1.3      estimate D2E/DX2                          !
 !       d6          1.4      estimate D2E/DX2                          !
 !       d7          1.0      estimate D2E/DX2                          !
 !       d8          1.0      estimate D2E/DX2                          !
 !       d9          1.0      estimate D2E/DX2                          !
 !       d10         1.0      estimate D2E/DX2                          !
 !       d11         1.0      estimate D2E/DX2                          !
 !       d12         2.8      estimate D2E/DX2                          !
 !       d13         1.2      estimate D2E/DX2                          !
 !       d14         1.0      estimate D2E/DX2                          !
 !       d15         1.0      estimate D2E/DX2                          !
 !       d16         2.3      estimate D2E/DX2                          !
 !       d17         0.9      estimate D2E/DX2                          !
 !       d18         2.3      estimate D2E/DX2                          !
 !       d19         0.9      estimate D2E/DX2                          !
 ------------------------------------------------------------------------
 Trust Radius=3.00D-01 FncErr=1.00D-07 GrdErr=1.00D-06 EigMax=2.50D+02 EigMin=1.00D-04
 Number of steps in this run=     29 maximum allowed number of steps=    100.
 GradGradGradGradGradGradGradGradGradGradGradGradGradGradGradGradGradGrad

 ---------------------------------------------------------------------------------------------------
                            Z-MATRIX (ANGSTROMS AND DEGREES)
   CD    Cent   Atom    N1       Length/X        N2       Alpha/Y        N3        Beta/Z          J
 ---------------------------------------------------------------------------------------------------
      1      1  C 
      2      2  C        1   1.300000(     1)
      3      3  C        2   1.300000(     2)      1  120.000(    20)
      4      4  C        3   1.300000(     3)      2  120.000(    21)      1    0.000(    38)      0
      5      5  C        4   1.300000(     4)      3  120.000(    22)      2    0.000(    39)      0
      6      6  C        5   1.300000(     5)      4  120.000(    23)      3    0.000(    40)      0
      7      7  F        1   1.400000(     6)      2  120.000(    24)      3  180.000(    41)      0
      8      8  H        2   1.000000(     7)      3  120.000(    25)      4  180.000(    42)      0
      9      9  H        3   1.000000(     8)      4  120.000(    26)      5  180.000(    43)      0
     10     10  H        4   1.000000(     9)      5  120.000(    27)      6  180.000(    44)      0
     11     11  H        5   1.000000(    10)      6  120.000(    28)      1  180.000(    45)      0
     12     12  H        6   1.000000(    11)      1  120.000(    29)      2  180.000(    46)      0
     13     13  O        7   2.800000(    12)      1  179.900(    30)      3  180.000(    47)      0
     14     14  C       13   1.200000(    13)      1  179.900(    31)      2  180.000(    48)      0
     15     15  H       14   1.000000(    14)      1  120.000(    32)      2   90.000(    49)      0
     16     16  H       14   1.000000(    15)      1  120.000(    33)      2  -90.000(    50)      0
     17     17  H        7   2.300000(    16)      1  100.000(    34)      2   90.000(    51)      0
     18     18  F       17   0.900000(    17)      7  160.000(    35)      1    0.000(    52)      0
     19     19  H        7   2.300000(    18)      1  100.000(    36)      2  -90.000(    53)      0
     20     20  F       19   0.900000(    19)      7  160.000(    37)      1    0.000(    54)      0
 ---------------------------------------------------------------------------------------------------
                         Z-Matrix orientation:                         
 ---------------------------------------------------------------------
 Center     Atomic      Atomic             Coordinates (Angstroms)
 Number     Number       Type             X           Y           Z
 ---------------------------------------------------------------------
      1          6           0        0.000000    0.000000    0.000000
      2          6           0        0.000000    0.000000    1.300000
      3          6           0        1.125833    0.000000    1.950000
      4          6           0        2.251666    0.000000    1.300000
      5          6           0        2.251666    0.000000   -0.000000
      6          6           0        1.125833    0.000000   -0.650000
      7          9           0       -1.212436   -0.000000   -0.700000
      8          1           0       -0.866025   -0.000000    1.800000
      9          1           0        1.125833   -0.000000    2.950000
     10          1           0        3.117691   -0.000000    1.800000
     11          1           0        3.117691   -0.000000   -0.500000
     12          1           0        1.125833   -0.000000   -1.650000
     13          8           0       -3.634860   -0.000000   -2.104230
     14          6           0       -4.672340   -0.000000   -2.707251
     15          1           0       -5.104965    0.866025   -2.957922
     16          1           0       -5.104965   -0.866025   -2.957922
     17          1           0       -1.558318    2.265058   -0.899695
     18          9           0       -1.422973    3.151385   -0.821554
     19          1           0       -1.558318   -2.265058   -0.899695
     20          9           0       -1.422973   -3.151385   -0.821554
 ---------------------------------------------------------------------
                    Distance matrix (angstroms):
                    1          2          3          4          5
     1  C    0.000000
     2  C    1.300000   0.000000
     3  C    2.251666   1.300000   0.000000
     4  C    2.600000   2.251666   1.300000   0.000000
     5  C    2.251666   2.600000   2.251666   1.300000   0.000000
     6  C    1.300000   2.251666   2.600000   2.251666   1.300000
     7  F    1.400000   2.338803   3.534119   4.000000   3.534119
     8  H    1.997498   1.000000   1.997498   3.157531   3.600000
     9  H    3.157531   1.997498   1.000000   1.997498   3.157531
    10  H    3.600000   3.157531   1.997498   1.000000   1.997498
    11  H    3.157531   3.600000   3.157531   1.997498   1.000000
    12  H    1.997498   3.157531   3.600000   3.157531   1.997498
    13  O    4.199999   4.980059   6.253077   6.799997   6.251317
    14  C    5.399997   6.155390   7.436988   7.999995   7.434452
    15  H    5.963218   6.703772   7.978755   8.543999   7.976172
    16  H    5.963218   6.703772   7.978755   8.543999   7.976172
    17  H    2.892800   3.521009   4.522822   4.948245   4.522822
    18  F    3.554016   4.056731   4.910107   5.285375   4.910107
    19  H    2.892800   3.521009   4.522822   4.948245   4.522822
    20  F    3.554016   4.056731   4.910107   5.285375   4.910107
                    6          7          8          9         10
     6  C    0.000000
     7  F    2.338803   0.000000
     8  H    3.157531   2.523886   0.000000
     9  H    3.600000   4.334743   2.300000   0.000000
    10  H    3.157531   5.000000   3.983717   2.300000   0.000000
    11  H    1.997498   4.334743   4.600000   3.983717   2.300000
    12  H    1.000000   2.523886   3.983717   4.600000   3.983717
    13  O    4.977849   2.800000   4.786382   6.943301   7.799997
    14  C    6.152324   3.999999   5.899436   8.100821   8.999995
    15  H    6.700697   4.582575   6.430896   8.629970   9.539387
    16  H    6.700697   4.582575   6.430896   8.629970   9.539387
    17  H    3.521009   2.300000   3.591394   5.211076   5.855246
    18  F    4.056731   3.160748   4.136902   5.536448   6.117303
    19  H    3.521009   2.300000   3.591394   5.211076   5.855246
    20  F    4.056731   3.160748   4.136902   5.536448   6.117303
                   11         12         13         14         15
    11  H    0.000000
    12  H    2.300000   0.000000
    13  O    6.940497   4.782313   0.000000
    14  C    8.096700   5.893776   1.200000   0.000000
    15  H    8.625744   6.425224   1.907878   1.000000   0.000000
    16  H    8.625744   6.425224   1.907878   1.000000   1.732051
    17  H    5.211076   3.591394   3.300517   4.253807   4.332700
    18  F    5.536448   4.136902   4.058193   4.903618   4.831563
    19  H    5.211076   3.591394   3.300517   4.253807   5.159329
    20  F    5.536448   4.136902   4.058193   4.903618   5.853266
                   16         17         18         19         20
    16  H    0.000000
    17  H    5.159329   0.000000
    18  F    5.853266   0.900000   0.000000
    19  H    4.332700   4.530116   5.418697   0.000000
    20  F    4.831563   5.418697   6.302770   0.900000   0.000000
 Stoichiometry    C7H9F3O
 Framework group  CS[SG(C7H5FO),X(H4F2)]
 Deg. of freedom    34
 Full point group                 CS      NOp   2
 Largest Abelian subgroup         CS      NOp   2
 Largest concise Abelian subgroup CS      NOp   2
                         Standard orientation:                         
 ---------------------------------------------------------------------
 Center     Atomic      Atomic             Coordinates (Angstroms)
 Number     Number       Type             X           Y           Z
 ---------------------------------------------------------------------
      1          6           0       -0.001252   -0.790402   -0.000000
      2          6           0       -1.127085   -1.440402   -0.000000
      3          6           0       -1.127085   -2.740402   -0.000000
      4          6           0       -0.001252   -3.390402   -0.000000
      5          6           0        1.124581   -2.740402   -0.000000
      6          6           0        1.124581   -1.440402   -0.000000
      7          9           0       -0.001252    0.609598    0.000000
      8          1           0       -1.993110   -0.940402   -0.000000
      9          1           0       -1.993110   -3.240402   -0.000000
     10          1           0       -0.001252   -4.390402   -0.000000
     11          1           0        1.990606   -3.240402   -0.000000
     12          1           0        1.990606   -0.940402   -0.000000
     13          8           0        0.003635    3.409593    0.000000
     14          6           0        0.007126    4.609588    0.000000
     15          1           0        0.007901    5.109588    0.866025
     16          1           0        0.007901    5.109588   -0.866025
     17          1           0       -0.001252    1.008988    2.265058
     18          9           0       -0.001252    0.852705    3.151385
     19          1           0       -0.001252    1.008988   -2.265058
     20          9           0       -0.001252    0.852705   -3.151385
 ---------------------------------------------------------------------
 Rotational constants (GHZ):           1.0844055           0.4930931           0.3779130
 Standard basis: 6-311++G(d,p) (5D, 7F)
 There are   220 symmetry adapted cartesian basis functions of A'  symmetry.
 There are    96 symmetry adapted cartesian basis functions of A"  symmetry.
 There are   210 symmetry adapted basis functions of A'  symmetry.
 There are    95 symmetry adapted basis functions of A"  symmetry.
   305 basis functions,   477 primitive gaussians,   316 cartesian basis functions
    43 alpha electrons       43 beta electrons
       nuclear repulsion energy       583.9088757139 Hartrees.
 NAtoms=   20 NActive=   20 NUniq=   17 SFac= 1.38D+00 NAtFMM=   60 NAOKFM=F Big=F
 Integral buffers will be    131072 words long.
 Raffenetti 2 integral format.
 Two-electron integral symmetry is turned on.
 ------------------------------------------------------------------------------
 Polarizable Continuum Model (PCM)
 =================================
 Model                : PCM.
 Atomic radii         : UFF (Universal Force Field).
 Polarization charges : Total charges.
 Charge compensation  : None.
 Solution method      : On-the-fly selection.
 Cavity type          : Scaled VdW (van der Waals Surface) (Alpha=1.100).
 Cavity algorithm     : GePol (No added spheres)
                        Default sphere list used, NSphG=   20.
                        Lebedev-Laikov grids with approx.  5.0 points / Ang**2.
                        Smoothing algorithm: York/Karplus (Gamma=1.0000).
                        Polarization charges: spherical gaussians, with
                                              point-specific exponents (IZeta= 3).
                        Self-potential: point-specific (ISelfS= 7).
                        Self-field    : sphere-specific E.n sum rule (ISelfD= 2).
 1st derivatives      : Analytical E(r).r(x)/FMM algorithm (CHGder, D1EAlg=3).
                        Cavity 1st derivative terms included.
 Solvent              : Chloroform, Eps=   4.711300 Eps(inf)=   2.090627
 ------------------------------------------------------------------------------
 Spheres list:
 ISph  on   Nord     Re0    Alpha      Xe            Ye            Ze
    1   C      1    1.9255  1.100     -0.001252     -0.790402     -0.000000
    2   C      2    1.9255  1.100     -1.127085     -1.440402     -0.000000
    3   C      3    1.9255  1.100     -1.127085     -2.740402     -0.000000
    4   C      4    1.9255  1.100     -0.001252     -3.390402     -0.000000
    5   C      5    1.9255  1.100      1.124581     -2.740402     -0.000000
    6   C      6    1.9255  1.100      1.124581     -1.440402     -0.000000
    7   F      7    1.6820  1.100     -0.001252      0.609598      0.000000
    8   H      8    1.4430  1.100     -1.993110     -0.940402     -0.000000
    9   H      9    1.4430  1.100     -1.993110     -3.240402     -0.000000
   10   H     10    1.4430  1.100     -0.001252     -4.390402     -0.000000
   11   H     11    1.4430  1.100      1.990606     -3.240402     -0.000000
   12   H     12    1.4430  1.100      1.990606     -0.940402     -0.000000
   13   O     13    1.7500  1.100      0.003635      3.409593      0.000000
   14   C     14    1.9255  1.100      0.007126      4.609588      0.000000
   15   H     15    1.4430  1.100      0.007901      5.109588      0.866025
   16   H     16    1.4430  1.100      0.007901      5.109588     -0.866025
   17   H     17    1.4430  1.100     -0.001252      1.008988      2.265058
   18   F     18    1.6820  1.100     -0.001252      0.852705      3.151385
   19   H     19    1.4430  1.100     -0.001252      1.008988     -2.265058
   20   F     20    1.6820  1.100     -0.001252      0.852705     -3.151385
 ------------------------------------------------------------------------------
 One-electron integrals computed using PRISM.
 NBasis=   305 RedAO= T EigKep=  3.67D-06  NBF=   210    95
 NBsUse=   304 1.00D-06 EigRej=  4.85D-07 NBFU=   209    95
 ExpMin= 3.60D-02 ExpMax= 1.14D+04 ExpMxC= 1.72D+03 IAcc=3 IRadAn=         5 AccDes= 0.00D+00
 Harris functional with IExCor= 1009 and IRadAn=       5 diagonalized for initial guess.
 HarFok:  IExCor= 1009 AccDes= 0.00D+00 IRadAn=         5 IDoV= 1 UseB2=F ITyADJ=14
 ICtDFT=  3500011 ScaDFX=  1.000000  1.000000  1.000000  1.000000
 FoFCou: FMM=F IPFlag=           0 FMFlag=      100000 FMFlg1=           0
         NFxFlg=           0 DoJE=T BraDBF=F KetDBF=T FulRan=T
         wScrn=  0.000000 ICntrl=       500 IOpCl=  0 I1Cent=   200000004 NGrid=           0
         NMat0=    1 NMatS0=      1 NMatT0=    0 NMatD0=    1 NMtDS0=    0 NMtDT0=    0
 Petite list used in FoFCou.
 Initial guess orbital symmetries:
       Occupied  (A') (A") (A') (A') (A') (A') (A') (A') (A') (A')
                 (A') (A') (A") (A') (A') (A') (A') (A') (A') (A')
                 (A') (A') (A') (A") (A") (A') (A') (A') (A') (A')
                 (A") (A') (A') (A') (A") (A') (A') (A") (A") (A')
                 (A") (A") (A")
       Virtual   (A') (A") (A") (A') (A') (A") (A') (A') (A') (A')
                 (A') (A") (A") (A') (A") (A') (A') (A') (A") (A')
                 (A') (A') (A") (A') (A') (A") (A') (A') (A") (A')
                 (A") (A') (A') (A') (A') (A') (A") (A') (A") (A')
                 (A") (A') (A') (A') (A') (A') (A') (A') (A") (A')
                 (A') (A") (A') (A') (A") (A') (A') (A') (A') (A")
                 (A') (A') (A') (A') (A') (A') (A') (A") (A') (A")
                 (A') (A') (A') (A') (A") (A") (A') (A") (A') (A')
                 (A') (A') (A') (A") (A") (A") (A') (A") (A') (A')
                 (A") (A') (A') (A') (A') (A') (A") (A') (A') (A')
                 (A') (A') (A') (A') (A") (A") (A') (A") (A') (A')
                 (A") (A") (A') (A') (A") (A') (A") (A') (A") (A')
                 (A') (A") (A') (A') (A") (A') (A") (A') (A') (A")
                 (A') (A") (A') (A') (A") (A') (A') (A') (A") (A")
                 (A') (A") (A') (A') (A') (A") (A") (A') (A") (A')
                 (A') (A") (A') (A') (A') (A") (A') (A') (A') (A")
                 (A") (A") (A') (A') (A") (A') (A') (A') (A") (A')
                 (A') (A") (A") (A') (A') (A") (A') (A') (A") (A')
                 (A") (A') (A') (A") (A') (A') (A') (A") (A") (A')
                 (A') (A') (A") (A') (A') (A') (A") (A') (A") (A")
                 (A') (A') (A') (A") (A') (A') (A') (A') (A') (A')
                 (A') (A") (A') (A') (A') (A") (A") (A') (A') (A")
                 (A') (A") (A") (A') (A") (A') (A') (A") (A') (A')
                 (A') (A') (A') (A') (A") (A') (A') (A') (A') (A")
                 (A') (A") (A') (A") (A') (A") (A') (A') (A") (A')
                 (A') (A') (A') (A') (A') (A') (A') (A') (A") (A')
                 (A')
 The electronic state of the initial guess is 1-A'.
 Requested convergence on RMS density matrix=1.00D-08 within 128 cycles.
 Requested convergence on MAX density matrix=1.00D-06.
 Requested convergence on             energy=1.00D-06.
 No special actions if energy rises.
 Inv3:  Mode=1 IEnd=    12904428.
 Iteration    1 A*A^-1 deviation from unit magnitude is 5.11D-15 for   2072.
 Iteration    1 A*A^-1 deviation from orthogonality  is 2.45D-15 for   2066   1607.
 Iteration    1 A^-1*A deviation from unit magnitude is 5.11D-15 for   2072.
 Iteration    1 A^-1*A deviation from orthogonality  is 2.05D-15 for   1458    377.
 Error on total polarization charges =  0.00975
 SCF Done:  E(RM062X) =  -646.740427426     A.U. after   14 cycles
            NFock= 14  Conv=0.36D-08     -V/T= 1.9990

 **********************************************************************

            Population analysis using the SCF Density.

 **********************************************************************

 Orbital symmetries:
       Occupied  (A') (A') (A") (A') (A') (A') (A') (A') (A') (A')
                 (A') (A') (A") (A') (A') (A') (A') (A') (A') (A')
                 (A') (A') (A") (A') (A") (A') (A') (A") (A') (A')
                 (A') (A') (A') (A") (A") (A') (A") (A') (A') (A')
                 (A") (A") (A")
       Virtual   (A') (A') (A') (A') (A") (A') (A") (A") (A') (A')
                 (A") (A') (A') (A") (A') (A") (A') (A') (A') (A")
                 (A') (A') (A') (A') (A') (A") (A") (A") (A') (A')
                 (A") (A') (A') (A') (A') (A") (A') (A') (A') (A')
                 (A') (A") (A") (A') (A') (A") (A') (A") (A') (A')
                 (A') (A') (A") (A') (A') (A') (A") (A') (A') (A')
                 (A') (A') (A') (A') (A") (A') (A') (A') (A') (A")
                 (A') (A') (A") (A') (A") (A') (A') (A") (A') (A')
                 (A') (A') (A") (A") (A') (A") (A") (A') (A') (A")
                 (A') (A') (A") (A') (A') (A') (A') (A') (A') (A')
                 (A') (A') (A') (A') (A') (A") (A') (A') (A") (A")
                 (A') (A') (A") (A') (A") (A") (A') (A") (A") (A")
                 (A') (A') (A') (A') (A") (A') (A") (A') (A") (A')
                 (A') (A') (A") (A') (A") (A") (A') (A') (A') (A')
                 (A') (A") (A") (A') (A") (A") (A') (A') (A") (A')
                 (A') (A') (A") (A') (A") (A') (A') (A") (A') (A')
                 (A") (A") (A') (A') (A") (A') (A') (A') (A') (A')
                 (A") (A") (A") (A') (A') (A") (A') (A') (A") (A")
                 (A') (A') (A') (A') (A') (A") (A') (A') (A') (A")
                 (A') (A') (A') (A') (A") (A") (A') (A") (A") (A")
                 (A') (A') (A') (A") (A') (A') (A') (A') (A') (A")
                 (A') (A') (A') (A') (A') (A") (A") (A") (A') (A')
                 (A') (A") (A") (A') (A') (A") (A') (A") (A') (A')
                 (A') (A') (A') (A') (A") (A') (A') (A') (A') (A")
                 (A') (A") (A') (A") (A') (A") (A') (A') (A") (A')
                 (A') (A') (A') (A') (A') (A') (A') (A') (A") (A')
                 (A')
 The electronic state is 1-A'.
 Alpha  occ. eigenvalues --  -25.26400 -25.23013 -25.23013 -19.64137 -10.61830
 Alpha  occ. eigenvalues --  -10.61734 -10.52761 -10.52758 -10.52433 -10.52420
 Alpha  occ. eigenvalues --  -10.51707  -1.36918  -1.34843  -1.34824  -1.19301
 Alpha  occ. eigenvalues --   -1.03471  -0.89636  -0.88802  -0.75265  -0.74145
 Alpha  occ. eigenvalues --   -0.72780  -0.66899  -0.64835  -0.64539  -0.60735
 Alpha  occ. eigenvalues --   -0.59603  -0.59271  -0.57736  -0.54224  -0.53773
 Alpha  occ. eigenvalues --   -0.52862  -0.51582  -0.51577  -0.51569  -0.51545
 Alpha  occ. eigenvalues --   -0.50742  -0.48205  -0.47687  -0.44789  -0.42395
 Alpha  occ. eigenvalues --   -0.35268  -0.34133  -0.33252
 Alpha virt. eigenvalues --   -0.00759  -0.00440   0.00716   0.01367   0.01520
 Alpha virt. eigenvalues --    0.02024   0.02265   0.03141   0.03461   0.03669
 Alpha virt. eigenvalues --    0.04558   0.05845   0.07041   0.07544   0.07722
 Alpha virt. eigenvalues --    0.08935   0.08950   0.10627   0.11602   0.11609
 Alpha virt. eigenvalues --    0.12567   0.12933   0.13373   0.13722   0.14051
 Alpha virt. eigenvalues --    0.14072   0.14187   0.14820   0.14913   0.15525
 Alpha virt. eigenvalues --    0.16258   0.17158   0.17388   0.18383   0.19737
 Alpha virt. eigenvalues --    0.20596   0.20787   0.20887   0.21613   0.21979
 Alpha virt. eigenvalues --    0.22865   0.24600   0.25934   0.26491   0.27475
 Alpha virt. eigenvalues --    0.28053   0.28599   0.30724   0.30818   0.30879
 Alpha virt. eigenvalues --    0.32593   0.33085   0.33395   0.33777   0.33880
 Alpha virt. eigenvalues --    0.34707   0.35496   0.36118   0.36804   0.38311
 Alpha virt. eigenvalues --    0.39731   0.41440   0.42835   0.43358   0.43608
 Alpha virt. eigenvalues --    0.44098   0.45534   0.45804   0.51287   0.52235
 Alpha virt. eigenvalues --    0.54616   0.54620   0.56029   0.56966   0.58446
 Alpha virt. eigenvalues --    0.58762   0.59199   0.59366   0.60915   0.61935
 Alpha virt. eigenvalues --    0.64061   0.64786   0.65335   0.65402   0.65900
 Alpha virt. eigenvalues --    0.66182   0.68071   0.70074   0.71354   0.74588
 Alpha virt. eigenvalues --    0.75097   0.75819   0.79562   0.81218   0.81444
 Alpha virt. eigenvalues --    0.83500   0.85265   0.85703   0.89209   0.89743
 Alpha virt. eigenvalues --    0.93998   0.96785   0.99755   1.01378   1.02235
 Alpha virt. eigenvalues --    1.02734   1.05578   1.06333   1.07595   1.07966
 Alpha virt. eigenvalues --    1.11335   1.11958   1.15854   1.16736   1.19225
 Alpha virt. eigenvalues --    1.22657   1.22869   1.23620   1.27330   1.32434
 Alpha virt. eigenvalues --    1.32753   1.32876   1.34992   1.35768   1.36534
 Alpha virt. eigenvalues --    1.37129   1.38712   1.44942   1.45460   1.49699
 Alpha virt. eigenvalues --    1.50876   1.52119   1.52511   1.53165   1.54925
 Alpha virt. eigenvalues --    1.58642   1.61130   1.63375   1.64286   1.65193
 Alpha virt. eigenvalues --    1.66253   1.67258   1.68043   1.71250   1.73033
 Alpha virt. eigenvalues --    1.73412   1.76315   1.76526   1.81905   1.82193
 Alpha virt. eigenvalues --    1.84525   1.85355   1.85475   1.90572   1.92875
 Alpha virt. eigenvalues --    1.94086   1.94259   1.97052   1.99127   2.04148
 Alpha virt. eigenvalues --    2.04352   2.05338   2.05589   2.06212   2.11830
 Alpha virt. eigenvalues --    2.15488   2.17123   2.17975   2.18350   2.19846
 Alpha virt. eigenvalues --    2.21601   2.23340   2.36448   2.37982   2.40426
 Alpha virt. eigenvalues --    2.46189   2.48229   2.50490   2.50664   2.54390
 Alpha virt. eigenvalues --    2.56013   2.58145   2.64900   2.66926   2.70577
 Alpha virt. eigenvalues --    2.73297   2.75134   2.76863   2.78064   2.78555
 Alpha virt. eigenvalues --    2.79632   2.81420   2.86252   2.86500   2.87265
 Alpha virt. eigenvalues --    2.89632   2.90579   2.96215   2.98214   2.98445
 Alpha virt. eigenvalues --    3.03595   3.08284   3.11645   3.24393   3.27021
 Alpha virt. eigenvalues --    3.34987   3.39535   3.41602   3.55087   3.59914
 Alpha virt. eigenvalues --    3.61324   3.64491   3.74893   3.75916   3.86486
 Alpha virt. eigenvalues --    3.87446   3.88738   3.88847   3.88937   3.89051
 Alpha virt. eigenvalues --    3.99267   4.00528   4.03691   4.08304   4.13635
 Alpha virt. eigenvalues --    4.14770   4.15346   4.16441   4.17343   4.18542
 Alpha virt. eigenvalues --    4.19051   4.25733   4.26768   4.36645   4.91692
 Alpha virt. eigenvalues --    4.92225   4.94659   4.95356   5.11351   5.24432
 Alpha virt. eigenvalues --    5.82263   6.40976   6.41973   6.44376   6.45064
 Alpha virt. eigenvalues --    6.55664   6.61304   6.83900   6.86144   6.89795
 Alpha virt. eigenvalues --   23.73073  24.17140  24.26710  24.31393  24.54027
 Alpha virt. eigenvalues --   24.57135  24.72664  50.07049  66.90853  66.91741
 Alpha virt. eigenvalues --   66.96466
          Condensed to atoms (all electrons):
               1          2          3          4          5          6
     1  C   16.326894  -1.552306  -3.208116  -0.772546  -3.209790  -1.556661
     2  C   -1.552306  16.454806   2.784321  -1.084566  -1.655503  -9.230680
     3  C   -3.208116   2.784321   7.983151   0.710147  -0.730665  -1.659389
     4  C   -0.772546  -1.084566   0.710147   7.447068   0.713506  -1.075423
     5  C   -3.209790  -1.655503  -0.730665   0.713506   7.983106   2.779472
     6  C   -1.556661  -9.230680  -1.659389  -1.075423   2.779472  16.458610
     7  F    0.674113  -0.301430  -0.068643   0.021419  -0.068843  -0.302139
     8  H   -0.117597   0.578536  -0.081468  -0.031414   0.032793  -0.049072
     9  H   -0.022583  -0.047772   0.458015  -0.113626  -0.001076   0.064878
    10  H    0.046875  -0.029554  -0.076680   0.524222  -0.076728  -0.029382
    11  H   -0.022450   0.065000  -0.001049  -0.113633   0.458079  -0.048112
    12  H   -0.116508  -0.047817   0.032956  -0.031708  -0.082360   0.577197
    13  O    0.068276  -0.020853  -0.001472  -0.001318  -0.001457  -0.020911
    14  C   -0.001680  -0.001079   0.000029   0.000087   0.000002  -0.001325
    15  H   -0.000315   0.000187   0.000039  -0.000058   0.000038   0.000184
    16  H   -0.000315   0.000187   0.000039  -0.000058   0.000038   0.000184
    17  H    0.015692  -0.003357  -0.001259  -0.001186  -0.001217  -0.003256
    18  F    0.126938  -0.034245  -0.022789   0.007180  -0.022784  -0.034348
    19  H    0.015692  -0.003357  -0.001259  -0.001186  -0.001217  -0.003256
    20  F    0.126938  -0.034245  -0.022789   0.007180  -0.022784  -0.034348
               7          8          9         10         11         12
     1  C    0.674113  -0.117597  -0.022583   0.046875  -0.022450  -0.116508
     2  C   -0.301430   0.578536  -0.047772  -0.029554   0.065000  -0.047817
     3  C   -0.068643  -0.081468   0.458015  -0.076680  -0.001049   0.032956
     4  C    0.021419  -0.031414  -0.113626   0.524222  -0.113633  -0.031708
     5  C   -0.068843   0.032793  -0.001076  -0.076728   0.458079  -0.082360
     6  C   -0.302139  -0.049072   0.064878  -0.029382  -0.048112   0.577197
     7  F    9.240831  -0.022793  -0.001314   0.001301  -0.001309  -0.022731
     8  H   -0.022793   0.496094  -0.010322   0.000110   0.003133   0.000605
     9  H   -0.001314  -0.010322   0.478322  -0.014078   0.000817   0.003137
    10  H    0.001301   0.000110  -0.014078   0.486913  -0.014081   0.000111
    11  H   -0.001309   0.003133   0.000817  -0.014081   0.478337  -0.010347
    12  H   -0.022731   0.000605   0.003137   0.000111  -0.010347   0.496154
    13  O   -0.000415   0.002030   0.000057  -0.000009   0.000057   0.002033
    14  C    0.002379  -0.000271   0.000002   0.000002   0.000002  -0.000267
    15  H   -0.000390  -0.000008   0.000004  -0.000001   0.000004  -0.000008
    16  H   -0.000390  -0.000008   0.000004  -0.000001   0.000004  -0.000008
    17  H    0.013826  -0.000615   0.000064  -0.000044   0.000065  -0.000615
    18  F   -0.008589   0.000346  -0.000774   0.000197  -0.000774   0.000354
    19  H    0.013826  -0.000615   0.000064  -0.000044   0.000065  -0.000615
    20  F   -0.008589   0.000346  -0.000774   0.000197  -0.000774   0.000354
              13         14         15         16         17         18
     1  C    0.068276  -0.001680  -0.000315  -0.000315   0.015692   0.126938
     2  C   -0.020853  -0.001079   0.000187   0.000187  -0.003357  -0.034245
     3  C   -0.001472   0.000029   0.000039   0.000039  -0.001259  -0.022789
     4  C   -0.001318   0.000087  -0.000058  -0.000058  -0.001186   0.007180
     5  C   -0.001457   0.000002   0.000038   0.000038  -0.001217  -0.022784
     6  C   -0.020911  -0.001325   0.000184   0.000184  -0.003256  -0.034348
     7  F   -0.000415   0.002379  -0.000390  -0.000390   0.013826  -0.008589
     8  H    0.002030  -0.000271  -0.000008  -0.000008  -0.000615   0.000346
     9  H    0.000057   0.000002   0.000004   0.000004   0.000064  -0.000774
    10  H   -0.000009   0.000002  -0.000001  -0.000001  -0.000044   0.000197
    11  H    0.000057   0.000002   0.000004   0.000004   0.000065  -0.000774
    12  H    0.002033  -0.000267  -0.000008  -0.000008  -0.000615   0.000354
    13  O    8.184741   0.276579  -0.089384  -0.089384   0.002785  -0.001988
    14  C    0.276579   4.810169   0.413846   0.413846   0.001608  -0.000605
    15  H   -0.089384   0.413846   0.678640  -0.128094  -0.001112   0.000508
    16  H   -0.089384   0.413846  -0.128094   0.678640   0.000409  -0.000246
    17  H    0.002785   0.001608  -0.001112   0.000409   0.375003   0.326106
    18  F   -0.001988  -0.000605   0.000508  -0.000246   0.326106   8.934303
    19  H    0.002785   0.001608   0.000409  -0.001112  -0.000816   0.000302
    20  F   -0.001988  -0.000605  -0.000246   0.000508   0.000302  -0.000026
              19         20
     1  C    0.015692   0.126938
     2  C   -0.003357  -0.034245
     3  C   -0.001259  -0.022789
     4  C   -0.001186   0.007180
     5  C   -0.001217  -0.022784
     6  C   -0.003256  -0.034348
     7  F    0.013826  -0.008589
     8  H   -0.000615   0.000346
     9  H    0.000064  -0.000774
    10  H   -0.000044   0.000197
    11  H    0.000065  -0.000774
    12  H   -0.000615   0.000354
    13  O    0.002785  -0.001988
    14  C    0.001608  -0.000605
    15  H    0.000409  -0.000246
    16  H   -0.001112   0.000508
    17  H   -0.000816   0.000302
    18  F    0.000302  -0.000026
    19  H    0.375003   0.326106
    20  F    0.326106   8.934303
 Mulliken charges:
               1
     1  C   -0.820550
     2  C    0.163728
     3  C   -0.093120
     4  C   -0.204086
     5  C   -0.092611
     6  C    0.167775
     7  F   -0.160122
     8  H    0.200192
     9  H    0.206954
    10  H    0.180675
    11  H    0.206964
    12  H    0.200083
    13  O   -0.310166
    14  C    0.085672
    15  H    0.125755
    16  H    0.125755
    17  H    0.277617
    18  F   -0.269065
    19  H    0.277617
    20  F   -0.269065
 Sum of Mulliken charges =  -0.00000
 Mulliken charges with hydrogens summed into heavy atoms:
               1
     1  C   -0.820550
     2  C    0.363921
     3  C    0.113834
     4  C   -0.023411
     5  C    0.114353
     6  C    0.367857
     7  F   -0.160122
    13  O   -0.310166
    14  C    0.337182
    18  F    0.008551
    20  F    0.008551
 Electronic spatial extent (au):  <R**2>=           2834.1682
 Charge=             -0.0000 electrons
 Dipole moment (field-independent basis, Debye):
    X=              0.0081    Y=              0.9062    Z=             -0.0000  Tot=              0.9063
 Quadrupole moment (field-independent basis, Debye-Ang):
   XX=            -56.5671   YY=            -29.6916   ZZ=            -86.0831
   XY=              0.0502   XZ=             -0.0000   YZ=              0.0000
 Traceless Quadrupole moment (field-independent basis, Debye-Ang):
   XX=              0.8802   YY=             27.7557   ZZ=            -28.6358
   XY=              0.0502   XZ=             -0.0000   YZ=              0.0000
 Octapole moment (field-independent basis, Debye-Ang**2):
  XXX=             -0.0212  YYY=            149.6422  ZZZ=              0.0000  XYY=              0.2423
  XXY=              1.3975  XXZ=             -0.0000  XZZ=              0.0329  YZZ=              5.5252
  YYZ=             -0.0000  XYZ=             -0.0000
 Hexadecapole moment (field-independent basis, Debye-Ang**3):
 XXXX=           -243.8301 YYYY=          -1482.8791 ZZZZ=          -1014.3553 XXXY=             -1.0026
 XXXZ=             -0.0000 YYYX=              0.2786 YYYZ=              0.0000 ZZZX=             -0.0000
 ZZZY=             -0.0000 XXYY=           -418.5092 XXZZ=           -173.6270 YYZZ=           -544.4033
 XXYZ=             -0.0000 YYXZ=             -0.0000 ZZXY=             -0.3187
 N-N= 5.839088757139D+02 E-N=-2.694627427640D+03  KE= 6.473899424955D+02
 Symmetry A'   KE= 5.273122971849D+02
 Symmetry A"   KE= 1.200776453106D+02
 D1PCM: PCM CHGder 1st derivatives, ID1Alg=3 FixD1E=F DoIter=F DoCFld=F I1PDM=0.
 Calling FoFJK, ICntrl=      2127 FMM=F ISym2X=1 I1Cent= 0 IOpClX= 0 NMat=1 NMatS=1 NMatT=0.
 ***** Axes restored to original set *****
 -------------------------------------------------------------------
 Center     Atomic                   Forces (Hartrees/Bohr)
 Number     Number              X              Y              Z
 -------------------------------------------------------------------
      1        6          -0.082488828   -0.000000000   -0.047623025
      2        6          -0.054126809    0.000000000    0.014695464
      3        6           0.002780706   -0.000000000    0.037132285
      4        6           0.038943842    0.000000000    0.022484100
      5        6           0.033547754    0.000000000   -0.016157733
      6        6          -0.014337762    0.000000000   -0.054223512
      7        9           0.019452852    0.000000000    0.011235683
      8        1          -0.065569050   -0.000000000    0.036064234
      9        1          -0.001756255    0.000000000    0.073727799
     10        1           0.064241839   -0.000000000    0.037090049
     11        1           0.062972047   -0.000000000   -0.038384862
     12        1          -0.001552047    0.000000000   -0.074816550
     13        8           0.015878221    0.000000000    0.009155841
     14        6           0.061749737    0.000000000    0.035984586
     15        1          -0.039102106    0.071594989   -0.022739648
     16        1          -0.039102106   -0.071594989   -0.022739648
     17        1          -0.005353799   -0.030941625   -0.003091191
     18        9           0.004587781    0.027632873    0.002648659
     19        1          -0.005353799    0.030941625   -0.003091191
     20        9           0.004587781   -0.027632873    0.002648659
 -------------------------------------------------------------------
 Cartesian Forces:  Max     0.082488828 RMS     0.034546133
 -----------------------------------------------------------------------------------------------
                       Internal Coordinate Forces (Hartree/Bohr or radian)
  Cent   Atom   N1       Length/X         N2         Alpha/Y        N3         Beta/Z          J
 -----------------------------------------------------------------------------------------------
      1  C 
      2  C        1   0.036577(     1)
      3  C        2   0.152468(     2)      1   0.158568(    20)
      4  C        3   0.221193(     3)      2   0.412118(    21)      1   0.000000(    38)     0
      5  C        4   0.184617(     4)      3   0.449777(    22)      2   0.000000(    39)     0
      6  C        5   0.079315(     5)      4   0.253165(    23)      3   0.000000(    40)     0
      7  F        1  -0.020027(     6)      2   0.000027(    24)      3   0.000000(    41)     0
      8  H        2   0.074817(     7)      3   0.002933(    25)      4   0.000000(    42)     0
      9  H        3   0.073728(     8)      4   0.003319(    26)      5   0.000000(    43)     0
     10  H        4   0.074180(     9)      5   0.000000(    27)      6  -0.000000(    44)     0
     11  H        5   0.073728(    10)      6  -0.003319(    28)      1  -0.000000(    45)     0
     12  H        6   0.074817(    11)      1  -0.002933(    29)      2   0.000000(    46)     0
     13  O        7   0.000668(    12)      1  -0.000022(    30)      3   0.000000(    47)     0
     14  C       13   0.018997(    13)      1   0.000106(    31)      2   0.000000(    48)     0
     15  H       14   0.084620(    14)      1   0.006379(    32)      2   0.000118(    49)     0
     16  H       14   0.084620(    15)      1   0.006379(    33)      2  -0.000118(    50)     0
     17  H        7  -0.003105(    16)      1   0.005572(    34)      2   0.000001(    51)     0
     18  F       17   0.028133(    17)      7  -0.000712(    35)      1   0.000000(    52)     0
     19  H        7  -0.003105(    18)      1   0.005572(    36)      2  -0.000001(    53)     0
     20  F       19   0.028133(    19)      7  -0.000712(    37)      1  -0.000000(    54)     0
 -----------------------------------------------------------------------------------------------
 Internal  Forces:  Max     0.449777381 RMS     0.107125814

 GradGradGradGradGradGradGradGradGradGradGradGradGradGradGradGradGradGrad
 Berny optimization.
 Search for a local minimum.
 Step number   1 out of a maximum of   29
 All quantities printed in internal units (Hartrees-Bohrs-Radians)
 Second derivative matrix not updated -- first step.
 The second derivative matrix:
                          d1        d2        d3        d4        d5
           d1           0.95300
           d2          -0.05489   0.95300
           d3          -0.33597   0.33597   1.34386
           d4          -0.28107   0.05489   0.33597   0.95300
           d5           0.05489  -0.28107  -0.33597  -0.05489   0.95300
           d6           0.00000   0.00000  -0.00000  -0.00000  -0.00000
           d7           0.00000   0.00000  -0.00000  -0.00000  -0.00000
           d8          -0.00000  -0.00000   0.00000   0.00000   0.00000
           d9           0.00000   0.00000   0.00000  -0.00000  -0.00000
           d10         -0.00000  -0.00000  -0.00000   0.00000   0.00000
           d11          0.00000  -0.00000  -0.00000  -0.00000  -0.00000
           d12          0.00000   0.00000   0.00000  -0.00000  -0.00000
           d13          0.00000   0.00000   0.00000  -0.00000  -0.00000
           d14         -0.00000  -0.00000   0.00000   0.00000   0.00000
           d15          0.00000   0.00000   0.00000  -0.00000  -0.00000
           d16         -0.00000  -0.00000  -0.00000   0.00000   0.00000
           d17         -0.00000  -0.00000   0.00000   0.00000   0.00000
           d18         -0.00000  -0.00000  -0.00000   0.00000   0.00000
           d19         -0.00000  -0.00000   0.00000   0.00000   0.00000
                          d6        d7        d8        d9        d10
           d6           0.45621
           d7           0.00000   0.47688
           d8          -0.00000   0.00000   0.47688
           d9           0.00000  -0.00000   0.00000   0.47688
           d10          0.00000  -0.00000  -0.00000   0.00000   0.47688
           d11          0.00000  -0.00000   0.00000   0.00000   0.00000
           d12         -0.00000  -0.00000  -0.00000   0.00000   0.00000
           d13         -0.00000  -0.00000  -0.00000   0.00000   0.00000
           d14          0.00000   0.00000   0.00000  -0.00000  -0.00000
           d15         -0.00000  -0.00000  -0.00000   0.00000   0.00000
           d16         -0.00000   0.00000   0.00000  -0.00000  -0.00000
           d17          0.00000   0.00000   0.00000  -0.00000  -0.00000
           d18          0.00000  -0.00000   0.00000  -0.00000  -0.00000
           d19         -0.00000  -0.00000   0.00000  -0.00000  -0.00000
                          d11       d12       d13       d14       d15
           d11          0.47688
           d12          0.00000   0.02330
           d13          0.00000  -0.00000   1.04823
           d14         -0.00000   0.00000   0.00000   0.47688
           d15          0.00000   0.00000  -0.00000   0.00000   0.47688
           d16         -0.00000   0.00000   0.00000   0.00000   0.00000
           d17         -0.00000  -0.00000  -0.00000   0.00000  -0.00000
           d18          0.00000  -0.00000   0.00000   0.00000  -0.00000
           d19          0.00000   0.00000   0.00000  -0.00000   0.00000
                          d16       d17       d18       d19
           d16          0.02721
           d17          0.00000   0.70673
           d18          0.00000   0.00000   0.02721
           d19          0.00000  -0.00000  -0.00000   0.70673
 ITU=  0
     Eigenvalues ---    0.02330   0.02721   0.02721   0.45621   0.47688
     Eigenvalues ---    0.47688   0.47688   0.47688   0.47688   0.47688
     Eigenvalues ---    0.47688   0.67193   0.67193   0.67193   0.70673
     Eigenvalues ---    0.70673   1.04823   1.12429   2.01579
 RFO step:  Lambda=-1.63402987D-01 EMin= 2.33007068D-02
 Linear search not attempted -- first point.
 Maximum step size (   0.300) exceeded in Quadratic search.
    -- Step size scaled by   0.669
 Variable       Old X    -DE/DX   Delta X   Delta X   Delta X     New X
                                 (Linear)    (Quad)   (Total)
    d1        2.45664   0.03658   0.00000   0.07557   0.07557   2.53221
    d2        2.45664   0.15247   0.00000   0.08646   0.08646   2.54310
    d3        2.45664   0.22119   0.00000   0.09527   0.09527   2.55191
    d4        2.45664   0.18462   0.00000   0.10168   0.10168   2.55832
    d5        2.45664   0.07931   0.00000   0.09928   0.09928   2.55592
    d6        2.64562  -0.02003   0.00000  -0.02164  -0.02164   2.62398
    d7        1.88973   0.07482   0.00000   0.07822   0.07822   1.96794
    d8        1.88973   0.07373   0.00000   0.07708   0.07708   1.96680
    d9        1.88973   0.07418   0.00000   0.07755   0.07755   1.96728
   d10        1.88973   0.07373   0.00000   0.07708   0.07708   1.96680
   d11        1.88973   0.07482   0.00000   0.07822   0.07822   1.96794
   d12        5.29123   0.00067   0.00000   0.00240   0.00240   5.29363
   d13        2.26767   0.01900   0.00000   0.01050   0.01050   2.27817
   d14        1.88973   0.08462   0.00000   0.08847   0.08847   1.97819
   d15        1.88973   0.08462   0.00000   0.08847   0.08847   1.97819
   d16        4.34637  -0.00310   0.00000  -0.01090  -0.01090   4.33547
   d17        1.70075   0.02813   0.00000   0.02164   0.02164   1.72240
   d18        4.34637  -0.00310   0.00000  -0.01090  -0.01090   4.33547
   d19        1.70075   0.02813   0.00000   0.02164   0.02164   1.72240
         Item               Value     Threshold  Converged?
 Maximum Force            0.221193     0.000450     NO 
 RMS     Force            0.091231     0.000300     NO 
 Maximum Displacement     0.101680     0.001800     NO 
 RMS     Displacement     0.068825     0.001200     NO 
 Predicted change in Energy=-8.012405D-02
 GradGradGradGradGradGradGradGradGradGradGradGradGradGradGradGradGradGrad

 ---------------------------------------------------------------------------------------------------
                            Z-MATRIX (ANGSTROMS AND DEGREES)
   CD    Cent   Atom    N1       Length/X        N2       Alpha/Y        N3        Beta/Z          J
 ---------------------------------------------------------------------------------------------------
      1      1  C 
      2      2  C        1   1.339990(     1)
      3      3  C        2   1.345752(     2)      1  120.000(    20)
      4      4  C        3   1.350415(     3)      2  120.000(    21)      1    0.000(    38)      0
      5      5  C        4   1.353807(     4)      3  120.000(    22)      2    0.000(    39)      0
      6      6  C        5   1.352535(     5)      4  120.000(    23)      3    0.000(    40)      0
      7      7  F        1   1.388551(     6)      2  120.000(    24)      3  180.000(    41)      0
      8      8  H        2   1.041390(     7)      3  120.000(    25)      4  180.000(    42)      0
      9      9  H        3   1.040788(     8)      4  120.000(    26)      5  180.000(    43)      0
     10     10  H        4   1.041038(     9)      5  120.000(    27)      6  180.000(    44)      0
     11     11  H        5   1.040788(    10)      6  120.000(    28)      1  180.000(    45)      0
     12     12  H        6   1.041390(    11)      1  120.000(    29)      2  180.000(    46)      0
     13     13  O        7   2.801268(    12)      1  179.900(    30)      3  180.000(    47)      0
     14     14  C       13   1.205554(    13)      1  179.900(    31)      2  180.000(    48)      0
     15     15  H       14   1.046814(    14)      1  120.000(    32)      2   90.000(    49)      0
     16     16  H       14   1.046814(    15)      1  120.000(    33)      2  -90.000(    50)      0
     17     17  H        7   2.294230(    16)      1  100.000(    34)      2   90.000(    51)      0
     18     18  F       17   0.911453(    17)      7  160.000(    35)      1    0.000(    52)      0
     19     19  H        7   2.294230(    18)      1  100.000(    36)      2  -90.000(    53)      0
     20     20  F       19   0.911453(    19)      7  160.000(    37)      1    0.000(    54)      0
 ---------------------------------------------------------------------------------------------------
                         Z-Matrix orientation:                         
 ---------------------------------------------------------------------
 Center     Atomic      Atomic             Coordinates (Angstroms)
 Number     Number       Type             X           Y           Z
 ---------------------------------------------------------------------
      1          6           0        0.000000    0.000000    0.000000
      2          6           0        0.000000    0.000000    1.339990
      3          6           0        1.165455    0.000000    2.012866
      4          6           0        2.334949    0.000000    1.337659
      5          6           0        2.334949    0.000000   -0.016148
      6          6           0        1.163619    0.000000   -0.692416
      7          9           0       -1.202520   -0.000000   -0.694275
      8          1           0       -0.901871   -0.000000    1.860685
      9          1           0        1.165455   -0.000000    3.053654
     10          1           0        3.236515   -0.000000    1.858178
     11          1           0        3.236298   -0.000000   -0.536542
     12          1           0        1.149898   -0.000000   -1.733716
     13          8           0       -3.626042   -0.000000   -2.099142
     14          6           0       -4.668322   -0.000000   -2.704956
     15          1           0       -5.121198    0.906567   -2.967365
     16          1           0       -5.121198   -0.906567   -2.967365
     17          1           0       -1.547535    2.259376   -0.893470
     18          9           0       -1.410468    3.156981   -0.814334
     19          1           0       -1.547535   -2.259376   -0.893470
     20          9           0       -1.410468   -3.156981   -0.814334
 ---------------------------------------------------------------------
                    Distance matrix (angstroms):
                    1          2          3          4          5
     1  C    0.000000
     2  C    1.339990   0.000000
     3  C    2.325923   1.345752   0.000000
     4  C    2.690970   2.334950   1.350415   0.000000
     5  C    2.335005   2.700203   2.341925   1.353807   0.000000
     6  C    1.354049   2.341940   2.705283   2.343761   1.352535
     7  F    1.388551   2.363111   3.596655   4.079515   3.601881
     8  H    2.067733   1.041390   2.072919   3.278804   3.741591
     9  H    3.268500   2.072421   1.040788   2.076621   3.285027
    10  H    3.732004   3.277735   2.076828   1.041038   2.079884
    11  H    3.280473   3.740989   3.284490   2.079677   1.040788
    12  H    2.080393   3.281758   3.746614   3.292064   2.086716
    13  O    4.189818   4.997580   6.314036   6.880771   6.314449
    14  C    5.395370   6.176959   7.502720   8.086318   7.501700
    15  H    5.987803   6.752914   8.071343   8.657322   8.070048
    16  H    5.987803   6.752914   8.071343   8.657322   8.070048
    17  H    2.880613   3.533835   4.572952   5.015615   4.576916
    18  F    3.552336   4.073949   4.959332   5.350304   4.963041
    19  H    2.880613   3.533835   4.572952   5.015615   4.576916
    20  F    3.552336   4.073949   4.959332   5.350304   4.963041
                    6          7          8          9         10
     6  C    0.000000
     7  F    2.366140   0.000000
     8  H    3.283987   2.572589   0.000000
     9  H    3.746070   4.433316   2.386841   0.000000
    10  H    3.286704   5.120552   4.138386   2.391328   0.000000
    11  H    2.078532   4.441620   4.782378   4.144623   2.394720
    12  H    1.041390   2.571830   4.138777   4.787395   4.153994
    13  O    4.991966   2.801268   4.806385   7.036316   7.921809
    14  C    6.169429   4.006822   5.918720   8.197229   9.127357
    15  H    6.745086   4.620047   6.475698   8.751945   9.693250
    16  H    6.745086   4.620047   6.475698   8.751945   9.693250
    17  H    3.534906   2.294230   3.620364   5.295742   5.963512
    18  F    4.075208   3.166100   4.169044   5.618117   6.221197
    19  H    3.534906   2.294230   3.620364   5.295742   5.963512
    20  F    4.075208   3.166100   4.169044   5.618117   6.221197
                   11         12         13         14         15
    11  H    0.000000
    12  H    2.405470   0.000000
    13  O    7.037998   4.789900   0.000000
    14  C    8.196648   5.898728   1.205554   0.000000
    15  H    8.750914   6.455262   1.952221   1.046814   0.000000
    16  H    8.750914   6.455262   1.952221   1.046814   1.813135
    17  H    5.302569   3.617587   3.298274   4.257414   4.347666
    18  F    5.624600   4.167405   4.065222   4.914733   4.844525
    19  H    5.302569   3.617587   3.298274   4.257414   5.205315
    20  F    5.624600   4.167405   4.065222   4.914733   5.909102
                   16         17         18         19         20
    16  H    0.000000
    17  H    5.205315   0.000000
    18  F    5.909102   0.911453   0.000000
    19  H    4.347666   4.518751   5.418669   0.000000
    20  F    4.844525   5.418669   6.313962   0.911453   0.000000
 Stoichiometry    C7H9F3O
 Framework group  CS[SG(C7H5FO),X(H4F2)]
 Deg. of freedom    34
 Full point group                 CS      NOp   2
 Largest Abelian subgroup         CS      NOp   2
 Largest concise Abelian subgroup CS      NOp   2
                         Standard orientation:                         
 ---------------------------------------------------------------------
 Center     Atomic      Atomic             Coordinates (Angstroms)
 Number     Number       Type             X           Y           Z
 ---------------------------------------------------------------------
      1          6           0       -0.005327   -0.764194    0.000000
      2          6           0       -1.165792   -1.434189    0.000000
      3          6           0       -1.165792   -2.779941    0.000000
      4          6           0        0.003701   -3.455148    0.000000
      5          6           0        1.176132   -2.778245    0.000000
      6          6           0        1.176132   -1.425709    0.000000
      7          9           0       -0.005327    0.624357   -0.000000
      8          1           0       -2.067663   -0.913494    0.000000
      9          1           0       -2.067141   -3.300335    0.000000
     10          1           0        0.003701   -4.496186    0.000000
     11          1           0        2.077481   -3.298639    0.000000
     12          1           0        2.071064   -0.893177   -0.000000
     13          8           0       -0.000438    3.425621   -0.000000
     14          6           0        0.003073    4.631170   -0.000000
     15          1           0        0.003888    5.154576    0.906567
     16          1           0        0.003888    5.154576   -0.906567
     17          1           0       -0.005327    1.022746    2.259376
     18          9           0       -0.005327    0.864474    3.156981
     19          1           0       -0.005327    1.022746   -2.259376
     20          9           0       -0.005327    0.864474   -3.156981
 ---------------------------------------------------------------------
 Rotational constants (GHZ):           1.0667659           0.4821144           0.3727557
 Standard basis: 6-311++G(d,p) (5D, 7F)
 There are   220 symmetry adapted cartesian basis functions of A'  symmetry.
 There are    96 symmetry adapted cartesian basis functions of A"  symmetry.
 There are   210 symmetry adapted basis functions of A'  symmetry.
 There are    95 symmetry adapted basis functions of A"  symmetry.
   305 basis functions,   477 primitive gaussians,   316 cartesian basis functions
    43 alpha electrons       43 beta electrons
       nuclear repulsion energy       573.7140027137 Hartrees.
 NAtoms=   20 NActive=   20 NUniq=   17 SFac= 1.38D+00 NAtFMM=   60 NAOKFM=F Big=F
 Integral buffers will be    131072 words long.
 Raffenetti 2 integral format.
 Two-electron integral symmetry is turned on.
 ------------------------------------------------------------------------------
 Polarizable Continuum Model (PCM)
 =================================
 Model                : PCM.
 Atomic radii         : UFF (Universal Force Field).
 Polarization charges : Total charges.
 Charge compensation  : None.
 Solution method      : On-the-fly selection.
 Cavity type          : Scaled VdW (van der Waals Surface) (Alpha=1.100).
 Cavity algorithm     : GePol (No added spheres)
                        Default sphere list used, NSphG=   20.
                        Lebedev-Laikov grids with approx.  5.0 points / Ang**2.
                        Smoothing algorithm: York/Karplus (Gamma=1.0000).
                        Polarization charges: spherical gaussians, with
                                              point-specific exponents (IZeta= 3).
                        Self-potential: point-specific (ISelfS= 7).
                        Self-field    : sphere-specific E.n sum rule (ISelfD= 2).
 1st derivatives      : Analytical E(r).r(x)/FMM algorithm (CHGder, D1EAlg=3).
                        Cavity 1st derivative terms included.
 Solvent              : Chloroform, Eps=   4.711300 Eps(inf)=   2.090627
 ------------------------------------------------------------------------------
 Spheres list:
 ISph  on   Nord     Re0    Alpha      Xe            Ye            Ze
    1   C      1    1.9255  1.100     -0.005327     -0.764194      0.000000
    2   C      2    1.9255  1.100     -1.165792     -1.434189      0.000000
    3   C      3    1.9255  1.100     -1.165792     -2.779941      0.000000
    4   C      4    1.9255  1.100      0.003701     -3.455148      0.000000
    5   C      5    1.9255  1.100      1.176132     -2.778245      0.000000
    6   C      6    1.9255  1.100      1.176132     -1.425709      0.000000
    7   F      7    1.6820  1.100     -0.005327      0.624357     -0.000000
    8   H      8    1.4430  1.100     -2.067663     -0.913494      0.000000
    9   H      9    1.4430  1.100     -2.067141     -3.300335      0.000000
   10   H     10    1.4430  1.100      0.003701     -4.496186      0.000000
   11   H     11    1.4430  1.100      2.077481     -3.298639      0.000000
   12   H     12    1.4430  1.100      2.071064     -0.893177     -0.000000
   13   O     13    1.7500  1.100     -0.000438      3.425621     -0.000000
   14   C     14    1.9255  1.100      0.003073      4.631170     -0.000000
   15   H     15    1.4430  1.100      0.003888      5.154576      0.906567
   16   H     16    1.4430  1.100      0.003888      5.154576     -0.906567
   17   H     17    1.4430  1.100     -0.005327      1.022746      2.259376
   18   F     18    1.6820  1.100     -0.005327      0.864474      3.156981
   19   H     19    1.4430  1.100     -0.005327      1.022746     -2.259376
   20   F     20    1.6820  1.100     -0.005327      0.864474     -3.156981
 ------------------------------------------------------------------------------
 One-electron integrals computed using PRISM.
 NBasis=   305 RedAO= T EigKep=  5.01D-06  NBF=   210    95
 NBsUse=   304 1.00D-06 EigRej=  6.81D-07 NBFU=   209    95
 Initial guess from the checkpoint file:  "model_H2b.chk"
 B after Tr=     0.000000    0.000000   -0.000000
         Rot=    1.000000   -0.000000   -0.000000   -0.000823 Ang=  -0.09 deg.
 Initial guess orbital symmetries:
       Occupied  (A') (A') (A") (A') (A') (A') (A') (A') (A') (A')
                 (A') (A') (A") (A') (A') (A') (A') (A') (A') (A')
                 (A') (A') (A") (A') (A") (A') (A') (A") (A') (A')
                 (A') (A') (A') (A") (A") (A') (A") (A') (A') (A')
                 (A") (A") (A")
       Virtual   (A') (A') (A') (A') (A") (A') (A") (A") (A') (A')
                 (A") (A') (A') (A") (A') (A") (A') (A') (A') (A")
                 (A') (A') (A') (A') (A') (A") (A") (A") (A') (A')
                 (A") (A') (A') (A') (A') (A") (A') (A') (A') (A')
                 (A') (A") (A") (A') (A') (A") (A') (A") (A') (A')
                 (A') (A') (A") (A') (A') (A') (A") (A') (A') (A')
                 (A') (A') (A') (A') (A") (A') (A') (A') (A') (A")
                 (A') (A') (A") (A') (A") (A') (A') (A") (A') (A')
                 (A') (A') (A") (A") (A') (A") (A") (A') (A') (A")
                 (A') (A') (A") (A') (A') (A') (A') (A') (A') (A')
                 (A') (A') (A') (A') (A') (A") (A') (A') (A") (A")
                 (A') (A') (A") (A') (A") (A") (A') (A") (A") (A")
                 (A') (A') (A') (A') (A") (A') (A") (A') (A") (A')
                 (A') (A') (A") (A') (A") (A") (A') (A') (A') (A')
                 (A') (A") (A") (A') (A") (A") (A') (A') (A") (A')
                 (A') (A') (A") (A') (A") (A') (A') (A") (A') (A')
                 (A") (A") (A') (A') (A") (A') (A') (A') (A') (A')
                 (A") (A") (A") (A') (A') (A") (A') (A') (A") (A")
                 (A') (A') (A') (A') (A') (A") (A') (A') (A') (A")
                 (A') (A') (A') (A') (A") (A") (A') (A") (A") (A")
                 (A') (A') (A') (A") (A') (A') (A') (A') (A') (A")
                 (A') (A') (A') (A') (A') (A") (A") (A") (A') (A')
                 (A') (A") (A") (A') (A') (A") (A') (A") (A') (A')
                 (A') (A') (A') (A') (A") (A') (A') (A') (A') (A")
                 (A') (A") (A') (A") (A') (A") (A') (A') (A") (A')
                 (A') (A') (A') (A') (A') (A') (A') (A') (A") (A')
                 (A')
 ExpMin= 3.60D-02 ExpMax= 1.14D+04 ExpMxC= 1.72D+03 IAcc=3 IRadAn=         5 AccDes= 0.00D+00
 Harris functional with IExCor= 1009 and IRadAn=       5 diagonalized for initial guess.
 HarFok:  IExCor= 1009 AccDes= 0.00D+00 IRadAn=         5 IDoV= 1 UseB2=F ITyADJ=14
 ICtDFT=  3500011 ScaDFX=  1.000000  1.000000  1.000000  1.000000
 FoFCou: FMM=F IPFlag=           0 FMFlag=      100000 FMFlg1=           0
         NFxFlg=           0 DoJE=T BraDBF=F KetDBF=T FulRan=T
         wScrn=  0.000000 ICntrl=       500 IOpCl=  0 I1Cent=   200000004 NGrid=           0
         NMat0=    1 NMatS0=      1 NMatT0=    0 NMatD0=    1 NMtDS0=    0 NMtDT0=    0
 Petite list used in FoFCou.
 Requested convergence on RMS density matrix=1.00D-08 within 128 cycles.
 Requested convergence on MAX density matrix=1.00D-06.
 Requested convergence on             energy=1.00D-06.
 No special actions if energy rises.
 Inv3:  Mode=1 IEnd=    13432368.
 Iteration    1 A*A^-1 deviation from unit magnitude is 4.66D-15 for   2105.
 Iteration    1 A*A^-1 deviation from orthogonality  is 2.55D-15 for   2113   2051.
 Iteration    1 A^-1*A deviation from unit magnitude is 4.44D-15 for   2105.
 Iteration    1 A^-1*A deviation from orthogonality  is 1.35D-15 for   2105   2057.
 Error on total polarization charges =  0.01046
 SCF Done:  E(RM062X) =  -646.816560729     A.U. after   13 cycles
            NFock= 13  Conv=0.34D-08     -V/T= 2.0014
 D1PCM: PCM CHGder 1st derivatives, ID1Alg=3 FixD1E=F DoIter=F DoCFld=F I1PDM=0.
 Calling FoFJK, ICntrl=      2127 FMM=F ISym2X=1 I1Cent= 0 IOpClX= 0 NMat=1 NMatS=1 NMatT=0.
 ***** Axes restored to original set *****
 -------------------------------------------------------------------
 Center     Atomic                   Forces (Hartrees/Bohr)
 Number     Number              X              Y              Z
 -------------------------------------------------------------------
      1        6          -0.024380109    0.000000000   -0.029163722
      2        6          -0.029554763    0.000000000    0.009190588
      3        6           0.008285197    0.000000000    0.009993585
      4        6           0.012075809    0.000000000    0.004504133
      5        6           0.005572666    0.000000000   -0.001138405
      6        6          -0.010492759   -0.000000000   -0.016480901
      7        9           0.016310936   -0.000000000    0.010313026
      8        1          -0.030043179   -0.000000000    0.015410977
      9        1          -0.001373667   -0.000000000    0.033190574
     10        1           0.028937408   -0.000000000    0.016518590
     11        1           0.028054286   -0.000000000   -0.017842289
     12        1          -0.001390038    0.000000000   -0.033330728
     13        8           0.002611602    0.000000000    0.001445545
     14        6           0.036950300    0.000000000    0.021626544
     15        1          -0.020004046    0.032102344   -0.011668348
     16        1          -0.020004046   -0.032102344   -0.011668348
     17        1          -0.003048728   -0.015911871   -0.001763739
     18        9           0.002270930    0.012768087    0.001313329
     19        1          -0.003048728    0.015911871   -0.001763739
     20        9           0.002270930   -0.012768087    0.001313329
 -------------------------------------------------------------------
 Cartesian Forces:  Max     0.036950300 RMS     0.015781181
 -----------------------------------------------------------------------------------------------
                       Internal Coordinate Forces (Hartree/Bohr or radian)
  Cent   Atom   N1       Length/X         N2         Alpha/Y        N3         Beta/Z          J
 -----------------------------------------------------------------------------------------------
      1  C 
      2  C        1   0.019388(     1)
      3  C        2   0.057404(     2)      1   0.026575(    20)
      4  C        3   0.078225(     3)      2   0.122873(    21)      1  -0.000000(    38)     0
      5  C        4   0.069421(     4)      3   0.147534(    22)      2  -0.000000(    39)     0
      6  C        5   0.035835(     5)      4   0.093183(    23)      3  -0.000000(    40)     0
      7  F        1  -0.016966(     6)      2  -0.001983(    24)      3   0.000000(    41)     0
      8  H        2   0.033724(     7)      3   0.003297(    25)      4  -0.000000(    42)     0
      9  H        3   0.033191(     8)      4   0.002702(    26)      5  -0.000000(    43)     0
     10  H        4   0.033320(     9)      5  -0.000321(    27)      6  -0.000000(    44)     0
     11  H        5   0.033217(    10)      6  -0.002802(    28)      1  -0.000000(    45)     0
     12  H        6   0.033346(    11)      1  -0.001871(    29)      2   0.000000(    46)     0
     13  O        7   0.000519(    12)      1  -0.000027(    30)      3  -0.000000(    47)     0
     14  C       13   0.003503(    13)      1   0.000103(    31)      2  -0.000000(    48)     0
     15  H       14   0.039381(    14)      1   0.007922(    32)      2   0.000115(    49)     0
     16  H       14   0.039381(    15)      1   0.007922(    33)      2  -0.000115(    50)     0
     17  H        7  -0.002940(    16)      1   0.005573(    34)      2   0.000002(    51)     0
     18  F       17   0.013030(    17)      7  -0.000631(    35)      1  -0.000001(    52)     0
     19  H        7  -0.002940(    18)      1   0.005573(    36)      2  -0.000002(    53)     0
     20  F       19   0.013030(    19)      7  -0.000631(    37)      1   0.000001(    54)     0
 -----------------------------------------------------------------------------------------------
 Internal  Forces:  Max     0.147533782 RMS     0.036436733

 GradGradGradGradGradGradGradGradGradGradGradGradGradGradGradGradGradGrad
 Berny optimization.
 Search for a local minimum.
 Step number   2 out of a maximum of   29
 All quantities printed in internal units (Hartrees-Bohrs-Radians)
 Update second derivatives using D2CorN and points    1    2
 DE= -7.61D-02 DEPred=-8.01D-02 R= 9.50D-01
 TightC=F SS=  1.41D+00  RLast= 3.00D-01 DXNew= 5.0454D-01 9.0000D-01
 Trust test= 9.50D-01 RLast= 3.00D-01 DXMaxT set to 5.05D-01
 The second derivative matrix:
                          d1        d2        d3        d4        d5
           d1           0.95725
           d2          -0.04947   0.95985
           d3          -0.32889   0.34477   1.35495
           d4          -0.27476   0.06288   0.34624   0.96230
           d5           0.06046  -0.27396  -0.32669  -0.04662   0.96029
           d6           0.00225   0.00241   0.00235   0.00286   0.00296
           d7           0.00379   0.00492   0.00656   0.00572   0.00496
           d8           0.00375   0.00487   0.00649   0.00566   0.00492
           d9           0.00381   0.00494   0.00656   0.00574   0.00499
           d10          0.00374   0.00486   0.00647   0.00565   0.00490
           d11          0.00395   0.00510   0.00676   0.00593   0.00517
           d12          0.00011   0.00014   0.00019   0.00016   0.00014
           d13          0.00218   0.00257   0.00299   0.00302   0.00286
           d14          0.00376   0.00497   0.00676   0.00577   0.00493
           d15          0.00376   0.00497   0.00676   0.00577   0.00493
           d16         -0.00025  -0.00037  -0.00056  -0.00042  -0.00033
           d17          0.00053   0.00077   0.00116   0.00088   0.00069
           d18         -0.00025  -0.00037  -0.00056  -0.00042  -0.00033
           d19          0.00053   0.00077   0.00116   0.00088   0.00069
                          d6        d7        d8        d9        d10
           d6           0.45457
           d7           0.00250   0.48018
           d8           0.00246   0.00327   0.48012
           d9           0.00247   0.00332   0.00329   0.48022
           d10          0.00246   0.00326   0.00323   0.00328   0.48010
           d11          0.00246   0.00346   0.00343   0.00348   0.00342
           d12          0.00008   0.00009   0.00009   0.00009   0.00009
           d13         -0.00014   0.00217   0.00214   0.00216   0.00214
           d14          0.00298   0.00319   0.00316   0.00322   0.00315
           d15          0.00298   0.00319   0.00316   0.00322   0.00315
           d16         -0.00043  -0.00017  -0.00017  -0.00018  -0.00017
           d17          0.00084   0.00037   0.00037   0.00038   0.00037
           d18         -0.00043  -0.00017  -0.00017  -0.00018  -0.00017
           d19          0.00084   0.00037   0.00037   0.00038   0.00037
                          d11       d12       d13       d14       d15
           d11          0.48051
           d12          0.00010   0.02330
           d13          0.00220   0.00007   1.04875
           d14          0.00338   0.00009   0.00239   0.47988
           d15          0.00338   0.00009   0.00239   0.00300   0.47988
           d16         -0.00020  -0.00000  -0.00026  -0.00012  -0.00012
           d17          0.00042   0.00001   0.00053   0.00027   0.00027
           d18         -0.00020  -0.00000  -0.00026  -0.00012  -0.00012
           d19          0.00042   0.00001   0.00053   0.00027   0.00027
                          d16       d17       d18       d19
           d16          0.02719
           d17          0.00003   0.70668
           d18         -0.00002   0.00003   0.02719
           d19          0.00003  -0.00005   0.00003   0.70668
 ITU=  1  0
     Eigenvalues ---    0.02330   0.02717   0.02721   0.45350   0.47675
     Eigenvalues ---    0.47688   0.47688   0.47688   0.47688   0.47688
     Eigenvalues ---    0.49674   0.67187   0.67193   0.70445   0.70673
     Eigenvalues ---    0.70923   1.04891   1.12461   2.02310
 RFO step:  Lambda=-4.26411728D-03 EMin= 2.33029366D-02
 Quartic linear search produced a step of  0.90675.
 Variable       Old X    -DE/DX   Delta X   Delta X   Delta X     New X
                                 (Linear)    (Quad)   (Total)
    d1        2.53221   0.01939   0.06852   0.00261   0.07114   2.60335
    d2        2.54310   0.05740   0.07840  -0.00919   0.06920   2.61231
    d3        2.55191   0.07822   0.08639  -0.02269   0.06370   2.61561
    d4        2.55832   0.06942   0.09220  -0.01288   0.07932   2.63765
    d5        2.55592   0.03583   0.09002  -0.00104   0.08898   2.64490
    d6        2.62398  -0.01697  -0.01962  -0.03821  -0.05783   2.56615
    d7        1.96794   0.03372   0.07092   0.01515   0.08607   2.05402
    d8        1.96680   0.03319   0.06989   0.01476   0.08465   2.05145
    d9        1.96728   0.03332   0.07032   0.01455   0.08486   2.05214
   d10        1.96680   0.03322   0.06989   0.01486   0.08476   2.05156
   d11        1.96794   0.03335   0.07092   0.01361   0.08454   2.05248
   d12        5.29363   0.00052   0.00217   0.02597   0.02814   5.32177
   d13        2.27817   0.00350   0.00952  -0.00884   0.00068   2.27885
   d14        1.97819   0.03938   0.08022   0.02218   0.10239   2.08058
   d15        1.97819   0.03938   0.08022   0.02218   0.10239   2.08058
   d16        4.33547  -0.00294  -0.00989  -0.13771  -0.14759   4.18787
   d17        1.72240   0.01303   0.01962   0.00337   0.02299   1.74539
   d18        4.33547  -0.00294  -0.00989  -0.13771  -0.14759   4.18787
   d19        1.72240   0.01303   0.01962   0.00337   0.02299   1.74539
         Item               Value     Threshold  Converged?
 Maximum Force            0.078225     0.000450     NO 
 RMS     Force            0.036431     0.000300     NO 
 Maximum Displacement     0.147595     0.001800     NO 
 RMS     Displacement     0.083965     0.001200     NO 
 Predicted change in Energy=-1.544645D-02
 GradGradGradGradGradGradGradGradGradGradGradGradGradGradGradGradGradGrad

 ---------------------------------------------------------------------------------------------------
                            Z-MATRIX (ANGSTROMS AND DEGREES)
   CD    Cent   Atom    N1       Length/X        N2       Alpha/Y        N3        Beta/Z          J
 ---------------------------------------------------------------------------------------------------
      1      1  C 
      2      2  C        1   1.377633(     1)
      3      3  C        2   1.382372(     2)      1  120.000(    20)
      4      4  C        3   1.384122(     3)      2  120.000(    21)      1    0.000(    38)      0
      5      5  C        4   1.395782(     4)      3  120.000(    22)      2    0.000(    39)      0
      6      6  C        5   1.399619(     5)      4  120.000(    23)      3    0.000(    40)      0
      7      7  F        1   1.357951(     6)      2  120.000(    24)      3  180.000(    41)      0
      8      8  H        2   1.086938(     7)      3  120.000(    25)      4  180.000(    42)      0
      9      9  H        3   1.085582(     8)      4  120.000(    26)      5  180.000(    43)      0
     10     10  H        4   1.085947(     9)      5  120.000(    27)      6  180.000(    44)      0
     11     11  H        5   1.085639(    10)      6  120.000(    28)      1  180.000(    45)      0
[...]
    17  H    3.230539   1.865627   3.362965   5.144252   5.839116
    18  F    3.725811   2.753282   3.862826   5.411401   6.043049
    19  H    3.230539   1.865627   3.362965   5.144252   5.839116
    20  F    3.725811   2.753282   3.862826   5.411401   6.043049
                   11         12         13         14         15
    11  H    0.000000
    12  H    2.505742   0.000000
    13  O    6.980851   4.655534   0.000000
    14  C    8.133605   5.750189   1.203788   0.000000
    15  H    8.717906   6.336572   1.996709   1.101050   0.000000
    16  H    8.717906   6.336572   1.996709   1.101050   1.907075
    17  H    5.151359   3.346155   2.973835   3.990321   4.187034
    18  F    5.418303   3.850116   3.714723   4.611391   4.616577
    19  H    5.151359   3.346155   2.973835   3.990321   4.953678
    20  F    5.418303   3.850116   3.714723   4.611391   5.638770
                   16         17         18         19         20
    16  H    0.000000
    17  H    4.953678   0.000000
    18  F    5.638770   0.925207   0.000000
    19  H    4.187034   3.674567   4.588532   0.000000
    20  F    4.616577   4.588532   5.496869   0.925207   0.000000
 Stoichiometry    C7H9F3O
 Framework group  CS[SG(C7H5FO),X(H4F2)]
 Deg. of freedom    34
 Full point group                 CS      NOp   2
 Largest Abelian subgroup         CS      NOp   2
 Largest concise Abelian subgroup CS      NOp   2
                         Standard orientation:                         
 ---------------------------------------------------------------------
 Center     Atomic      Atomic             Coordinates (Angstroms)
 Number     Number       Type             X           Y           Z
 ---------------------------------------------------------------------
      1          6           0       -0.006199   -0.696842   -0.000000
      2          6           0       -1.197380   -1.384571   -0.000000
      3          6           0       -1.197380   -2.765953   -0.000000
      4          6           0        0.003103   -3.459052   -0.000000
      5          6           0        1.212012   -2.761088   -0.000000
      6          6           0        1.212012   -1.360987   -0.000000
      7          9           0       -0.006199    0.676561    0.000000
      8          1           0       -2.136258   -0.842509   -0.000000
      9          1           0       -2.134857   -3.307206   -0.000000
     10          1           0        0.003103   -4.542001   -0.000000
     11          1           0        2.149409   -3.302295   -0.000000
     12          1           0        2.136589   -0.796586   -0.000000
     13          8           0       -0.001552    3.338913    0.000000
     14          6           0        0.001935    4.542696    0.000000
     15          1           0        0.002789    5.093220    0.953537
     16          1           0        0.002789    5.093220   -0.953537
     17          1           0       -0.006199    1.000524    1.837283
     18          9           0       -0.006199    0.839863    2.748435
     19          1           0       -0.006199    1.000524   -1.837283
     20          9           0       -0.006199    0.839863   -2.748435
 ---------------------------------------------------------------------
 Rotational constants (GHZ):           1.3168555           0.4926168           0.4097277

 **********************************************************************

            Population analysis using the SCF Density.

 **********************************************************************

 Orbital symmetries:
       Occupied  (A') (A') (A") (A') (A') (A') (A') (A') (A') (A')
                 (A') (A') (A") (A') (A') (A') (A') (A') (A') (A')
                 (A') (A") (A') (A') (A') (A') (A") (A") (A') (A')
                 (A') (A') (A") (A") (A') (A') (A') (A") (A') (A')
                 (A") (A") (A")
       Virtual   (A') (A') (A") (A") (A') (A') (A') (A") (A') (A')
                 (A") (A') (A') (A') (A") (A") (A') (A') (A') (A")
                 (A') (A') (A') (A') (A') (A") (A") (A') (A") (A')
                 (A") (A') (A') (A') (A') (A') (A') (A") (A') (A")
                 (A') (A') (A") (A') (A') (A') (A") (A') (A') (A')
                 (A") (A') (A') (A') (A") (A') (A') (A') (A') (A")
                 (A') (A') (A') (A') (A') (A') (A") (A') (A') (A")
                 (A') (A') (A') (A') (A") (A') (A') (A") (A") (A')
                 (A') (A') (A") (A') (A") (A') (A") (A") (A') (A")
                 (A') (A') (A') (A') (A") (A') (A') (A') (A') (A')
                 (A') (A') (A') (A') (A') (A') (A") (A') (A') (A")
                 (A") (A') (A") (A") (A') (A") (A') (A") (A") (A')
                 (A") (A') (A') (A') (A") (A') (A") (A") (A") (A')
                 (A") (A') (A') (A') (A') (A') (A') (A") (A") (A')
                 (A") (A') (A') (A') (A') (A') (A") (A") (A") (A')
                 (A') (A") (A') (A') (A') (A") (A') (A") (A") (A')
                 (A') (A") (A') (A') (A") (A') (A') (A") (A') (A')
                 (A') (A") (A') (A') (A") (A') (A") (A") (A') (A')
                 (A') (A") (A') (A") (A') (A') (A') (A') (A') (A')
                 (A") (A') (A') (A') (A') (A") (A') (A") (A') (A")
                 (A") (A") (A') (A') (A") (A') (A') (A') (A') (A')
                 (A') (A') (A') (A") (A') (A") (A') (A") (A") (A")
                 (A') (A') (A') (A") (A') (A') (A') (A") (A') (A')
                 (A") (A') (A') (A') (A') (A') (A") (A') (A') (A")
                 (A') (A") (A') (A") (A') (A") (A') (A') (A') (A")
                 (A') (A') (A') (A') (A') (A') (A') (A') (A') (A")
                 (A')
 The electronic state is 1-A'.
 Alpha  occ. eigenvalues --  -25.29568 -25.22487 -25.22487 -19.64830 -10.64806
 Alpha  occ. eigenvalues --  -10.64170 -10.56782 -10.56535 -10.56468 -10.56232
 Alpha  occ. eigenvalues --  -10.55778  -1.40920  -1.33577  -1.33503  -1.19536
 Alpha  occ. eigenvalues --   -0.98799  -0.87002  -0.86744  -0.73022  -0.72599
 Alpha  occ. eigenvalues --   -0.72109  -0.66056  -0.65240  -0.63266  -0.59978
 Alpha  occ. eigenvalues --   -0.58823  -0.58771  -0.58599  -0.54140  -0.52937
 Alpha  occ. eigenvalues --   -0.51566  -0.50916  -0.50909  -0.50877  -0.50862
 Alpha  occ. eigenvalues --   -0.50590  -0.48012  -0.45652  -0.44515  -0.42427
 Alpha  occ. eigenvalues --   -0.35152  -0.33009  -0.32480
 Alpha virt. eigenvalues --   -0.01067  -0.00259  -0.00052   0.00591   0.00643
 Alpha virt. eigenvalues --    0.01279   0.01998   0.02196   0.03239   0.03535
 Alpha virt. eigenvalues --    0.04711   0.05841   0.06966   0.07604   0.07864
 Alpha virt. eigenvalues --    0.09137   0.09320   0.10638   0.11310   0.11687
 Alpha virt. eigenvalues --    0.12252   0.12645   0.13118   0.13254   0.13622
 Alpha virt. eigenvalues --    0.13975   0.14122   0.14508   0.14800   0.15327
 Alpha virt. eigenvalues --    0.16317   0.16829   0.16854   0.17857   0.18325
 Alpha virt. eigenvalues --    0.20062   0.20220   0.21311   0.21575   0.21805
 Alpha virt. eigenvalues --    0.22026   0.22980   0.24325   0.25923   0.26731
 Alpha virt. eigenvalues --    0.28243   0.28607   0.29349   0.29559   0.30651
 Alpha virt. eigenvalues --    0.30677   0.31520   0.32250   0.32318   0.33395
 Alpha virt. eigenvalues --    0.33479   0.34603   0.35605   0.36656   0.37502
 Alpha virt. eigenvalues --    0.38326   0.38503   0.39986   0.42630   0.43510
 Alpha virt. eigenvalues --    0.44064   0.44489   0.45710   0.50727   0.50964
 Alpha virt. eigenvalues --    0.51665   0.52639   0.55105   0.56658   0.56775
 Alpha virt. eigenvalues --    0.57816   0.58124   0.59047   0.59324   0.59822
 Alpha virt. eigenvalues --    0.60542   0.61026   0.61093   0.63128   0.64066
 Alpha virt. eigenvalues --    0.64273   0.65194   0.68317   0.69104   0.73351
 Alpha virt. eigenvalues --    0.73677   0.74716   0.76325   0.77319   0.78211
 Alpha virt. eigenvalues --    0.80983   0.82729   0.85049   0.87481   0.87916
 Alpha virt. eigenvalues --    0.89519   0.91163   0.93040   0.94598   0.95853
 Alpha virt. eigenvalues --    1.02529   1.03972   1.04824   1.05384   1.06245
 Alpha virt. eigenvalues --    1.06299   1.06508   1.11727   1.16284   1.17085
 Alpha virt. eigenvalues --    1.17694   1.22280   1.23228   1.25580   1.31924
 Alpha virt. eigenvalues --    1.32638   1.33579   1.34682   1.37136   1.37315
 Alpha virt. eigenvalues --    1.40004   1.43760   1.45092   1.45211   1.47827
 Alpha virt. eigenvalues --    1.48566   1.48703   1.49679   1.51616   1.52054
 Alpha virt. eigenvalues --    1.55347   1.56377   1.59651   1.60208   1.60917
 Alpha virt. eigenvalues --    1.61054   1.61113   1.63011   1.67908   1.68715
 Alpha virt. eigenvalues --    1.69426   1.69683   1.71919   1.76834   1.76890
 Alpha virt. eigenvalues --    1.77918   1.79512   1.80932   1.85912   1.87240
 Alpha virt. eigenvalues --    1.89830   1.91182   1.94045   1.94304   1.95986
 Alpha virt. eigenvalues --    1.96046   1.97046   1.98839   1.99584   2.01312
 Alpha virt. eigenvalues --    2.04373   2.07159   2.09785   2.10443   2.13088
 Alpha virt. eigenvalues --    2.17197   2.29276   2.30062   2.33270   2.34875
 Alpha virt. eigenvalues --    2.43757   2.44268   2.45507   2.47808   2.48169
 Alpha virt. eigenvalues --    2.52599   2.53363   2.53751   2.57439   2.61192
 Alpha virt. eigenvalues --    2.65943   2.67254   2.69984   2.72303   2.72651
 Alpha virt. eigenvalues --    2.73507   2.74516   2.74939   2.77155   2.79065
 Alpha virt. eigenvalues --    2.83604   2.85262   2.86844   2.89780   2.93587
 Alpha virt. eigenvalues --    2.94125   2.94700   2.97832   3.00521   3.14237
 Alpha virt. eigenvalues --    3.18440   3.25978   3.38702   3.38997   3.43027
 Alpha virt. eigenvalues --    3.48287   3.52630   3.56001   3.56694   3.66985
 Alpha virt. eigenvalues --    3.75052   3.78908   3.83876   3.89422   3.89729
 Alpha virt. eigenvalues --    3.89859   3.90093   3.93336   4.02057   4.02479
 Alpha virt. eigenvalues --    4.07423   4.08926   4.12767   4.13538   4.14399
 Alpha virt. eigenvalues --    4.15504   4.16641   4.17717   4.21715   4.85297
 Alpha virt. eigenvalues --    4.89011   4.89821   4.92353   5.11109   5.22005
 Alpha virt. eigenvalues --    5.80190   6.42164   6.43049   6.48600   6.48711
 Alpha virt. eigenvalues --    6.58420   6.58864   6.79862   6.91039   6.95310
 Alpha virt. eigenvalues --   23.68768  23.99801  24.01726  24.04825  24.15431
 Alpha virt. eigenvalues --   24.16651  24.27359  50.05357  66.90659  66.92205
 Alpha virt. eigenvalues --   66.94829
          Condensed to atoms (all electrons):
               1          2          3          4          5          6
     1  C   13.605203  -1.715035  -2.532193  -0.241502  -2.071097  -1.022094
     2  C   -1.715035  13.181775   2.331052  -0.771363  -0.779020  -6.426357
     3  C   -2.532193   2.331052   7.137328   0.421721  -0.282413  -1.113467
     4  C   -0.241502  -0.771363   0.421721   6.701505   0.356683  -0.586554
     5  C   -2.071097  -0.779020  -0.282413   0.356683   6.772920   1.969349
     6  C   -1.022094  -6.426357  -1.113467  -0.586554   1.969349  12.997988
     7  F    0.439718  -0.243884  -0.037762   0.007623  -0.034254  -0.238531
     8  H   -0.075265   0.474886  -0.054657  -0.006724   0.012462  -0.025561
     9  H   -0.028515  -0.021364   0.415799  -0.085730   0.013581   0.030943
    10  H    0.043635  -0.018381  -0.079965   0.482136  -0.077137  -0.014099
    11  H   -0.023121   0.035882   0.012841  -0.087191   0.411498  -0.026089
    12  H   -0.074910  -0.027163   0.010225  -0.003548  -0.051225   0.471714
    13  O    0.071176  -0.022699  -0.001292  -0.000648  -0.000915  -0.021091
    14  C   -0.000452  -0.001741  -0.000019   0.000030  -0.000053  -0.001676
    15  H   -0.000622   0.000198   0.000020  -0.000012   0.000019   0.000192
    16  H   -0.000622   0.000198   0.000020  -0.000012   0.000019   0.000192
    17  H    0.017010  -0.004521  -0.001260  -0.003417  -0.000719  -0.004118
    18  F    0.144330  -0.040172  -0.022772   0.009068  -0.021650  -0.038399
    19  H    0.017010  -0.004521  -0.001260  -0.003417  -0.000719  -0.004118
    20  F    0.144330  -0.040172  -0.022772   0.009068  -0.021650  -0.038399
               7          8          9         10         11         12
     1  C    0.439718  -0.075265  -0.028515   0.043635  -0.023121  -0.074910
     2  C   -0.243884   0.474886  -0.021364  -0.018381   0.035882  -0.027163
     3  C   -0.037762  -0.054657   0.415799  -0.079965   0.012841   0.010225
     4  C    0.007623  -0.006724  -0.085730   0.482136  -0.087191  -0.003548
     5  C   -0.034254   0.012462   0.013581  -0.077137   0.411498  -0.051225
     6  C   -0.238531  -0.025561   0.030943  -0.014099  -0.026089   0.471714
     7  F    9.215074  -0.014174  -0.000899   0.000487  -0.001008  -0.013638
     8  H   -0.014174   0.463065  -0.004078   0.000923   0.001242   0.001059
     9  H   -0.000899  -0.004078   0.450730  -0.009185   0.001507   0.001142
    10  H    0.000487   0.000923  -0.009185   0.468823  -0.008810   0.000926
    11  H   -0.001008   0.001242   0.001507  -0.008810   0.449473  -0.003446
    12  H   -0.013638   0.001059   0.001142   0.000926  -0.003446   0.460512
    13  O    0.002328   0.001671   0.000028  -0.000005   0.000027   0.001726
    14  C    0.000930  -0.000283   0.000004   0.000001   0.000003  -0.000261
    15  H   -0.000412  -0.000025   0.000002  -0.000000   0.000002  -0.000026
    16  H   -0.000412  -0.000025   0.000002  -0.000000   0.000002  -0.000026
    17  H    0.019585  -0.000938   0.000226  -0.000115   0.000219  -0.000934
    18  F   -0.009193  -0.000721  -0.000809   0.000124  -0.000808  -0.000753
    19  H    0.019585  -0.000938   0.000226  -0.000115   0.000219  -0.000934
    20  F   -0.009193  -0.000721  -0.000809   0.000124  -0.000808  -0.000753
              13         14         15         16         17         18
     1  C    0.071176  -0.000452  -0.000622  -0.000622   0.017010   0.144330
     2  C   -0.022699  -0.001741   0.000198   0.000198  -0.004521  -0.040172
     3  C   -0.001292  -0.000019   0.000020   0.000020  -0.001260  -0.022772
     4  C   -0.000648   0.000030  -0.000012  -0.000012  -0.003417   0.009068
     5  C   -0.000915  -0.000053   0.000019   0.000019  -0.000719  -0.021650
     6  C   -0.021091  -0.001676   0.000192   0.000192  -0.004118  -0.038399
     7  F    0.002328   0.000930  -0.000412  -0.000412   0.019585  -0.009193
     8  H    0.001671  -0.000283  -0.000025  -0.000025  -0.000938  -0.000721
     9  H    0.000028   0.000004   0.000002   0.000002   0.000226  -0.000809
    10  H   -0.000005   0.000001  -0.000000  -0.000000  -0.000115   0.000124
    11  H    0.000027   0.000003   0.000002   0.000002   0.000219  -0.000808
    12  H    0.001726  -0.000261  -0.000026  -0.000026  -0.000934  -0.000753
    13  O    8.173384   0.240026  -0.090447  -0.090447   0.002220  -0.001589
    14  C    0.240026   4.927520   0.411273   0.411273   0.001353  -0.001071
    15  H   -0.090447   0.411273   0.627388  -0.088255  -0.000591   0.000225
    16  H   -0.090447   0.411273  -0.088255   0.627388   0.000309  -0.000142
    17  H    0.002220   0.001353  -0.000591   0.000309   0.386934   0.317149
    18  F   -0.001589  -0.001071   0.000225  -0.000142   0.317149   8.933865
    19  H    0.002220   0.001353   0.000309  -0.000591  -0.004522   0.001558
    20  F   -0.001589  -0.001071  -0.000142   0.000225   0.001558  -0.000191
              19         20
     1  C    0.017010   0.144330
     2  C   -0.004521  -0.040172
     3  C   -0.001260  -0.022772
     4  C   -0.003417   0.009068
     5  C   -0.000719  -0.021650
     6  C   -0.004118  -0.038399
     7  F    0.019585  -0.009193
     8  H   -0.000938  -0.000721
     9  H    0.000226  -0.000809
    10  H   -0.000115   0.000124
    11  H    0.000219  -0.000808
    12  H   -0.000934  -0.000753
    13  O    0.002220  -0.001589
    14  C    0.001353  -0.001071
    15  H    0.000309  -0.000142
    16  H   -0.000591   0.000225
    17  H   -0.004522   0.001558
    18  F    0.001558  -0.000191
    19  H    0.386934   0.317149
    20  F    0.317149   8.933865
 Mulliken charges:
               1
     1  C   -0.696983
     2  C    0.092402
     3  C   -0.179175
     4  C   -0.197716
     5  C   -0.195677
     6  C    0.090176
     7  F   -0.101969
     8  H    0.228803
     9  H    0.237199
    10  H    0.210634
    11  H    0.238364
    12  H    0.230313
    13  O   -0.264086
    14  C    0.012860
    15  H    0.140906
    16  H    0.140906
    17  H    0.274570
    18  F   -0.268049
    19  H    0.274570
    20  F   -0.268049
 Sum of Mulliken charges =  -0.00000
 Mulliken charges with hydrogens summed into heavy atoms:
               1
     1  C   -0.696983
     2  C    0.321206
     3  C    0.058024
     4  C    0.012918
     5  C    0.042687
     6  C    0.320490
     7  F   -0.101969
    13  O   -0.264086
    14  C    0.294672
    18  F    0.006521
    20  F    0.006521
 Electronic spatial extent (au):  <R**2>=           2677.9137
 Charge=             -0.0000 electrons
 Dipole moment (field-independent basis, Debye):
    X=             -0.0036    Y=              0.7630    Z=             -0.0000  Tot=              0.7630
 Quadrupole moment (field-independent basis, Debye-Ang):
   XX=            -56.0535   YY=            -29.8315   ZZ=            -85.7232
   XY=              0.1497   XZ=              0.0000   YZ=             -0.0000
 Traceless Quadrupole moment (field-independent basis, Debye-Ang):
   XX=              1.1492   YY=             27.3712   ZZ=            -28.5205
   XY=              0.1497   XZ=              0.0000   YZ=             -0.0000
 Octapole moment (field-independent basis, Debye-Ang**2):
  XXX=             -0.1964  YYY=            136.4999  ZZZ=             -0.0000  XYY=             -0.1846
  XXY=             -0.9660  XXZ=              0.0000  XZZ=             -0.0615  YZZ=             11.0248
  YYZ=             -0.0000  XYZ=              0.0000
 Hexadecapole moment (field-independent basis, Debye-Ang**3):
 XXXX=           -269.7276 YYYY=          -1514.2904 ZZZZ=           -757.1166 XXXY=              1.0516
 XXXZ=              0.0000 YYYX=              1.7384 YYYZ=             -0.0000 ZZZX=              0.0000
 ZZZY=              0.0000 XXYY=           -422.4306 XXZZ=           -156.8667 YYZZ=           -526.7795
 XXYZ=              0.0000 YYXZ=              0.0000 ZZXY=              0.5554
 N-N= 5.866721632198D+02 E-N=-2.698137939124D+03  KE= 6.448170464105D+02
 Symmetry A'   KE= 5.251855510034D+02
 Symmetry A"   KE= 1.196314954070D+02
 1\1\GINC-R820\POpt\RM062X\6-311++G(d,p)\C7H9F3O1\ZJXU\29-Mar-2024\1\\#
  m062x 6-311++G(d,p) opt=z-matrix scrf=(solvent=chloroform)\\test\\0,1
 \C\C,1,d1\C,2,d2,1,120.\C,3,d3,2,120.,1,0.,0\C,4,d4,3,120.,2,0.,0\C,5,
 d5,4,120.,3,0.,0\F,1,d6,2,120.,3,180.,0\H,2,d7,3,120.,4,180.,0\H,3,d8,
 4,120.,5,180.,0\H,4,d9,5,120.,6,180.,0\H,5,d10,6,120.,1,180.,0\H,6,d11
 ,1,120.,2,180.,0\O,7,d12,1,179.9,3,180.,0\C,13,d13,1,179.9,2,180.,0\H,
 14,d14,1,120.,2,90.,0\H,14,d15,1,120.,2,-90.,0\H,7,d16,1,100.,2,90.,0\
 F,17,d17,7,160.,1,0.,0\H,7,d18,1,100.,2,-90.,0\F,19,d19,7,160.,1,0.,0\
 \d1=1.3754573\d2=1.38138212\d3=1.38619834\d4=1.39592768\d5=1.40010185\
 d6=1.3734035\d7=1.08412306\d8=1.08250516\d9=1.08294869\d10=1.08241281\
 d11=1.08323135\d12=2.66235585\d13=1.20378785\d14=1.10105024\d15=1.1010
 5024\d16=1.86562655\d17=0.92520712\d18=1.86562655\d19=0.92520712\\Vers
 ion=ES64L-G16RevB.01\State=1-A'\HF=-646.8402904\RMSD=5.446e-09\RMSF=4.
 529e-03\Dipole=-0.2606776,0.,-0.1488718\Quadrupole=15.3795962,-21.2042
 626,5.8246663,0.,8.4974031,0.\PG=CS [SG(C7H5F1O1),X(H4F2)]\\@


 TIME GOES, YOU SAY?  AH NO!
 ALAS, TIME STAYS, WE GO.
    -- A. DOBSON (1840-1921)
 Job cpu time:       0 days  1 hours 18 minutes 26.6 seconds.
 Elapsed time:       0 days  0 hours 39 minutes 15.1 seconds.
 File lengths (MBytes):  RWF=    202 Int=      0 D2E=      0 Chk=     11 Scr=      1
 Normal termination of Gaussian 16 at Fri Mar 29 18:58:31 2024.
