 Entering Gaussian System, Link 0=g16
 Input=model_H1.gjf
 Output=model_H1.log
 Initial command:
 /home/zjxu/prog/g16/l1.exe "/home/zjxu/zjhan/5_model/HF/chloroform/Gau-47733.inp" -scrdir="/home/zjxu/zjhan/5_model/HF/chloroform/"
 Entering Link 1 = /home/zjxu/prog/g16/l1.exe PID=     47734.
  
 Copyright (c) 1988-2017, Gaussian, Inc.  All Rights Reserved.
  
 This is part of the Gaussian(R) 16 program.  It is based on
 the Gaussian(R) 09 system (copyright 2009, Gaussian, Inc.),
 the Gaussian(R) 03 system (copyright 2003, Gaussian, Inc.),
 the Gaussian(R) 98 system (copyright 1998, Gaussian, Inc.),
 the Gaussian(R) 94 system (copyright 1995, Gaussian, Inc.),
 the Gaussian 92(TM) system (copyright 1992, Gaussian, Inc.),
 the Gaussian 90(TM) system (copyright 1990, Gaussian, Inc.),
 the Gaussian 88(TM) system (copyright 1988, Gaussian, Inc.),
 the Gaussian 86(TM) system (copyright 1986, Carnegie Mellon
 University), and the Gaussian 82(TM) system (copyright 1983,
 Carnegie Mellon University). Gaussian is a federally registered
 trademark of Gaussian, Inc.
  
 This software contains proprietary and confidential information,
 including trade secrets, belonging to Gaussian, Inc.
  
 This software is provided under written license and may be
 used, copied, transmitted, or stored only in accord with that
 written license.
  
 The following legend is applicable only to US Government
 contracts under FAR:
  
                    RESTRICTED RIGHTS LEGEND
  
 Use, reproduction and disclosure by the US Government is
 subject to restrictions as set forth in subparagraphs (a)
 and (c) of the Commercial Computer Software - Restricted
 Rights clause in FAR 52.227-19.
  
 Gaussian, Inc.
 340 Quinnipiac St., Bldg. 40, Wallingford CT 06492
  
  
 ---------------------------------------------------------------
 Warning -- This program may not be used in any manner that
 competes with the business of Gaussian, Inc. or will provide
 assistance to any competitor of Gaussian, Inc.  The licensee
 of this program is prohibited from giving any competitor of
 Gaussian, Inc. access to this program.  By using this program,
 the user acknowledges that Gaussian, Inc. is engaged in the
 business of creating and licensing software in the field of
 computational chemistry and represents and warrants to the
 licensee that it is not a competitor of Gaussian, Inc. and that
 it will not use this program in any manner prohibited above.
 ---------------------------------------------------------------
  

 Cite this work as:
 Gaussian 16, Revision B.01,
 M. J. Frisch, G. W. Trucks, H. B. Schlegel, G. E. Scuseria, 
 M. A. Robb, J. R. Cheeseman, G. Scalmani, V. Barone, 
 G. A. Petersson, H. Nakatsuji, X. Li, M. Caricato, A. V. Marenich, 
 J. Bloino, B. G. Janesko, R. Gomperts, B. Mennucci, H. P. Hratchian, 
 J. V. Ortiz, A. F. Izmaylov, J. L. Sonnenberg, D. Williams-Young, 
 F. Ding, F. Lipparini, F. Egidi, J. Goings, B. Peng, A. Petrone, 
 T. Henderson, D. Ranasinghe, V. G. Zakrzewski, J. Gao, N. Rega, 
 G. Zheng, W. Liang, M. Hada, M. Ehara, K. Toyota, R. Fukuda, 
 J. Hasegawa, M. Ishida, T. Nakajima, Y. Honda, O. Kitao, H. Nakai, 
 T. Vreven, K. Throssell, J. A. Montgomery, Jr., J. E. Peralta, 
 F. Ogliaro, M. J. Bearpark, J. J. Heyd, E. N. Brothers, K. N. Kudin, 
 V. N. Staroverov, T. A. Keith, R. Kobayashi, J. Normand, 
 K. Raghavachari, A. P. Rendell, J. C. Burant, S. S. Iyengar, 
 J. Tomasi, M. Cossi, J. M. Millam, M. Klene, C. Adamo, R. Cammi, 
 J. W. Ochterski, R. L. Martin, K. Morokuma, O. Farkas, 
 J. B. Foresman, and D. J. Fox, Gaussian, Inc., Wallingford CT, 2016.
 
 ******************************************
 Gaussian 16:  ES64L-G16RevB.01 20-Dec-2017
                29-Mar-2024 
 ******************************************
 %mem=2GB
 %nproc=2
 Will use up to    2 processors via shared memory.
 %chk=model_H1
 ------------------------------------------------------------
 # m062x 6-311++G(d,p) opt=z-matrix scrf=(solvent=chloroform)
 ------------------------------------------------------------
 1/10=7,18=40,26=3,38=1/1,3;
 2/12=2,17=6,18=5,29=3,40=1/2;
 3/5=4,6=6,7=1111,11=2,25=1,30=1,70=2201,71=1,72=7,74=-55/1,2,3;
 4//1;
 5/5=2,38=5,53=7/2;
 6/7=2,8=2,9=2,10=2,28=1/1;
 7/29=1/1,2,3,16;
 1/10=7,18=40,26=3/3(2);
 2/29=3/2;
 99//99;
 2/29=3/2;
 3/5=4,6=6,7=1111,11=2,25=1,30=1,70=2205,71=1,72=7,74=-55/1,2,3;
 4/5=5,16=3,69=1/1;
 5/5=2,38=5,53=7/2;
 7//1,2,3,16;
 1/18=40,26=3/3(-5);
 2/29=3/2;
 6/7=2,8=2,9=2,10=2,19=2,28=1/1;
 99/9=1/99;
 ----
 test
 ----
 Symbolic Z-matrix:
 Charge =  0 Multiplicity = 1
 C1
 C2                   1    d1
 C3                   2    d2       1     120. 
 C4                   3    d3       2     120.     1     0.       0
 C5                   4    d4       3     120.     2     0.       0
 C6                   5    d5       4     120.     3     0.       0
 F7                   1    d6       2     120.     3     180.     0
 H8                   2    d7       3     120.     4     180.     0
 H9                   3    d8       4     120.     5     180.     0
 H10                  4    d9       5     120.     6     180.     0
 H11                  5    d10      6     120.     1     180.     0
 H12                  6    d11      1     120.     2     180.     0
 O13                  7    d12      1     179.9    3     180.     0
 C14                  13   d13      1     179.9    2     180.     0
 H15                  14   d14      1     120.     2     90.      0
 H16                  14   d15      1     120.     2    -90.      0
 H17                  7    d16      1     100.     2     90.      0
 F18                  17   d17      7     160.     1     0.       0
       Variables:
  d1                    1.3                      
  d2                    1.3                      
  d3                    1.3                      
  d4                    1.3                      
  d5                    1.3                      
  d6                    1.4                      
  d7                    1.                       
  d8                    1.                       
  d9                    1.                       
  d10                   1.                       
  d11                   1.                       
  d12                   2.8                      
  d13                   1.2                      
  d14                   1.                       
  d15                   1.                       
  d16                   2.3                      
  d17                   0.9                      
 

 GradGradGradGradGradGradGradGradGradGradGradGradGradGradGradGradGradGrad
 Berny optimization.
 Initialization pass.
                       ----------------------------
                       !    Initial Parameters    !
                       ! (Angstroms and Degrees)  !
 ----------------------                            ----------------------
 !      Name          Value   Derivative information (Atomic Units)     !
 ------------------------------------------------------------------------
 !       d1          1.3      estimate D2E/DX2                          !
 !       d2          1.3      estimate D2E/DX2                          !
 !       d3          1.3      estimate D2E/DX2                          !
 !       d4          1.3      estimate D2E/DX2                          !
 !       d5          1.3      estimate D2E/DX2                          !
 !       d6          1.4      estimate D2E/DX2                          !
 !       d7          1.0      estimate D2E/DX2                          !
 !       d8          1.0      estimate D2E/DX2                          !
 !       d9          1.0      estimate D2E/DX2                          !
 !       d10         1.0      estimate D2E/DX2                          !
 !       d11         1.0      estimate D2E/DX2                          !
 !       d12         2.8      estimate D2E/DX2                          !
 !       d13         1.2      estimate D2E/DX2                          !
 !       d14         1.0      estimate D2E/DX2                          !
 !       d15         1.0      estimate D2E/DX2                          !
 !       d16         2.3      estimate D2E/DX2                          !
 !       d17         0.9      estimate D2E/DX2                          !
 ------------------------------------------------------------------------
 Trust Radius=3.00D-01 FncErr=1.00D-07 GrdErr=1.00D-06 EigMax=2.50D+02 EigMin=1.00D-04
 Number of steps in this run=     27 maximum allowed number of steps=    100.
 GradGradGradGradGradGradGradGradGradGradGradGradGradGradGradGradGradGrad

 ---------------------------------------------------------------------------------------------------
                            Z-MATRIX (ANGSTROMS AND DEGREES)
   CD    Cent   Atom    N1       Length/X        N2       Alpha/Y        N3        Beta/Z          J
 ---------------------------------------------------------------------------------------------------
      1      1  C 
      2      2  C        1   1.300000(     1)
      3      3  C        2   1.300000(     2)      1  120.000(    18)
      4      4  C        3   1.300000(     3)      2  120.000(    19)      1    0.000(    34)      0
      5      5  C        4   1.300000(     4)      3  120.000(    20)      2    0.000(    35)      0
      6      6  C        5   1.300000(     5)      4  120.000(    21)      3    0.000(    36)      0
      7      7  F        1   1.400000(     6)      2  120.000(    22)      3  180.000(    37)      0
      8      8  H        2   1.000000(     7)      3  120.000(    23)      4  180.000(    38)      0
      9      9  H        3   1.000000(     8)      4  120.000(    24)      5  180.000(    39)      0
     10     10  H        4   1.000000(     9)      5  120.000(    25)      6  180.000(    40)      0
     11     11  H        5   1.000000(    10)      6  120.000(    26)      1  180.000(    41)      0
     12     12  H        6   1.000000(    11)      1  120.000(    27)      2  180.000(    42)      0
     13     13  O        7   2.800000(    12)      1  179.900(    28)      3  180.000(    43)      0
     14     14  C       13   1.200000(    13)      1  179.900(    29)      2  180.000(    44)      0
     15     15  H       14   1.000000(    14)      1  120.000(    30)      2   90.000(    45)      0
     16     16  H       14   1.000000(    15)      1  120.000(    31)      2  -90.000(    46)      0
     17     17  H        7   2.300000(    16)      1  100.000(    32)      2   90.000(    47)      0
     18     18  F       17   0.900000(    17)      7  160.000(    33)      1    0.000(    48)      0
 ---------------------------------------------------------------------------------------------------
                         Z-Matrix orientation:                         
 ---------------------------------------------------------------------
 Center     Atomic      Atomic             Coordinates (Angstroms)
 Number     Number       Type             X           Y           Z
 ---------------------------------------------------------------------
      1          6           0        0.000000    0.000000    0.000000
      2          6           0        0.000000    0.000000    1.300000
      3          6           0        1.125833    0.000000    1.950000
      4          6           0        2.251666    0.000000    1.300000
      5          6           0        2.251666    0.000000   -0.000000
      6          6           0        1.125833    0.000000   -0.650000
      7          9           0       -1.212436   -0.000000   -0.700000
      8          1           0       -0.866025   -0.000000    1.800000
      9          1           0        1.125833   -0.000000    2.950000
     10          1           0        3.117691   -0.000000    1.800000
     11          1           0        3.117691   -0.000000   -0.500000
     12          1           0        1.125833   -0.000000   -1.650000
     13          8           0       -3.634860   -0.000000   -2.104230
     14          6           0       -4.672340   -0.000000   -2.707251
     15          1           0       -5.104965    0.866025   -2.957922
     16          1           0       -5.104965   -0.866025   -2.957922
     17          1           0       -1.558318    2.265058   -0.899695
     18          9           0       -1.422973    3.151385   -0.821554
 ---------------------------------------------------------------------
                    Distance matrix (angstroms):
                    1          2          3          4          5
     1  C    0.000000
     2  C    1.300000   0.000000
     3  C    2.251666   1.300000   0.000000
     4  C    2.600000   2.251666   1.300000   0.000000
     5  C    2.251666   2.600000   2.251666   1.300000   0.000000
     6  C    1.300000   2.251666   2.600000   2.251666   1.300000
     7  F    1.400000   2.338803   3.534119   4.000000   3.534119
     8  H    1.997498   1.000000   1.997498   3.157531   3.600000
     9  H    3.157531   1.997498   1.000000   1.997498   3.157531
    10  H    3.600000   3.157531   1.997498   1.000000   1.997498
    11  H    3.157531   3.600000   3.157531   1.997498   1.000000
    12  H    1.997498   3.157531   3.600000   3.157531   1.997498
    13  O    4.199999   4.980059   6.253077   6.799997   6.251317
    14  C    5.399997   6.155390   7.436988   7.999995   7.434452
    15  H    5.963218   6.703772   7.978755   8.543999   7.976172
    16  H    5.963218   6.703772   7.978755   8.543999   7.976172
    17  H    2.892800   3.521009   4.522822   4.948245   4.522822
    18  F    3.554016   4.056731   4.910107   5.285375   4.910107
                    6          7          8          9         10
     6  C    0.000000
     7  F    2.338803   0.000000
     8  H    3.157531   2.523886   0.000000
     9  H    3.600000   4.334743   2.300000   0.000000
    10  H    3.157531   5.000000   3.983717   2.300000   0.000000
    11  H    1.997498   4.334743   4.600000   3.983717   2.300000
    12  H    1.000000   2.523886   3.983717   4.600000   3.983717
    13  O    4.977849   2.800000   4.786382   6.943301   7.799997
    14  C    6.152324   3.999999   5.899436   8.100821   8.999995
    15  H    6.700697   4.582575   6.430896   8.629970   9.539387
    16  H    6.700697   4.582575   6.430896   8.629970   9.539387
    17  H    3.521009   2.300000   3.591394   5.211076   5.855246
    18  F    4.056731   3.160748   4.136902   5.536448   6.117303
                   11         12         13         14         15
    11  H    0.000000
    12  H    2.300000   0.000000
    13  O    6.940497   4.782313   0.000000
    14  C    8.096700   5.893776   1.200000   0.000000
    15  H    8.625744   6.425224   1.907878   1.000000   0.000000
    16  H    8.625744   6.425224   1.907878   1.000000   1.732051
    17  H    5.211076   3.591394   3.300517   4.253807   4.332700
    18  F    5.536448   4.136902   4.058193   4.903618   4.831563
                   16         17         18
    16  H    0.000000
    17  H    5.159329   0.000000
    18  F    5.853266   0.900000   0.000000
 Stoichiometry    C7H8F2O
 Framework group  C1[X(C7H8F2O)]
 Deg. of freedom    48
 Full point group                 C1      NOp   1
 Largest Abelian subgroup         C1      NOp   1
 Largest concise Abelian subgroup C1      NOp   1
                         Standard orientation:                         
 ---------------------------------------------------------------------
 Center     Atomic      Atomic             Coordinates (Angstroms)
 Number     Number       Type             X           Y           Z
 ---------------------------------------------------------------------
      1          6           0       -0.702485   -0.355097   -0.001481
      2          6           0       -1.352040   -0.307568   -1.126567
      3          6           0       -2.648906   -0.217355   -1.125080
      4          6           0       -3.296216   -0.174671    0.001493
      5          6           0       -2.646661   -0.222201    1.126579
      6          6           0       -1.349796   -0.312414    1.125093
      7          9           0        0.694139   -0.452250   -0.003082
      8          1           0       -0.854109   -0.340401   -1.993162
      9          1           0       -3.148563   -0.180794   -1.990531
     10          1           0       -4.293805   -0.105277    0.002637
     11          1           0       -3.144592   -0.189367    1.993174
     12          1           0       -0.850138   -0.348975    1.990544
     13          8           0        3.487387   -0.646565   -0.001398
     14          6           0        4.684492   -0.729845    0.000721
     15          1           0        5.243386    0.099392    0.002724
     16          1           0        5.123187   -1.628480   -0.000875
     17          1           0        1.249754    1.779627    0.001168
     18          9           0        1.155356    2.674661    0.003188
 ---------------------------------------------------------------------
 Rotational constants (GHZ):           2.0958449           0.4987400           0.4591112
 Standard basis: 6-311++G(d,p) (5D, 7F)
 There are   286 symmetry adapted cartesian basis functions of A   symmetry.
 There are   276 symmetry adapted basis functions of A   symmetry.
   276 basis functions,   432 primitive gaussians,   286 cartesian basis functions
    38 alpha electrons       38 beta electrons
       nuclear repulsion energy       485.5299357125 Hartrees.
 NAtoms=   18 NActive=   18 NUniq=   18 SFac= 1.00D+00 NAtFMM=   60 NAOKFM=F Big=F
 Integral buffers will be    131072 words long.
 Raffenetti 2 integral format.
 Two-electron integral symmetry is turned on.
 ------------------------------------------------------------------------------
 Polarizable Continuum Model (PCM)
 =================================
 Model                : PCM.
 Atomic radii         : UFF (Universal Force Field).
 Polarization charges : Total charges.
 Charge compensation  : None.
 Solution method      : On-the-fly selection.
 Cavity type          : Scaled VdW (van der Waals Surface) (Alpha=1.100).
 Cavity algorithm     : GePol (No added spheres)
                        Default sphere list used, NSphG=   18.
                        Lebedev-Laikov grids with approx.  5.0 points / Ang**2.
                        Smoothing algorithm: York/Karplus (Gamma=1.0000).
                        Polarization charges: spherical gaussians, with
                                              point-specific exponents (IZeta= 3).
                        Self-potential: point-specific (ISelfS= 7).
                        Self-field    : sphere-specific E.n sum rule (ISelfD= 2).
 1st derivatives      : Analytical E(r).r(x)/FMM algorithm (CHGder, D1EAlg=3).
                        Cavity 1st derivative terms included.
 Solvent              : Chloroform, Eps=   4.711300 Eps(inf)=   2.090627
 ------------------------------------------------------------------------------
 Spheres list:
 ISph  on   Nord     Re0    Alpha      Xe            Ye            Ze
    1   C      1    1.9255  1.100     -0.702485     -0.355097     -0.001481
    2   C      2    1.9255  1.100     -1.352040     -0.307568     -1.126567
    3   C      3    1.9255  1.100     -2.648906     -0.217355     -1.125080
    4   C      4    1.9255  1.100     -3.296216     -0.174671      0.001493
    5   C      5    1.9255  1.100     -2.646661     -0.222201      1.126579
    6   C      6    1.9255  1.100     -1.349796     -0.312414      1.125093
    7   F      7    1.6820  1.100      0.694139     -0.452250     -0.003082
    8   H      8    1.4430  1.100     -0.854109     -0.340401     -1.993162
    9   H      9    1.4430  1.100     -3.148563     -0.180794     -1.990531
   10   H     10    1.4430  1.100     -4.293805     -0.105277      0.002637
   11   H     11    1.4430  1.100     -3.144592     -0.189367      1.993174
   12   H     12    1.4430  1.100     -0.850138     -0.348975      1.990544
   13   O     13    1.7500  1.100      3.487387     -0.646565     -0.001398
   14   C     14    1.9255  1.100      4.684492     -0.729845      0.000721
   15   H     15    1.4430  1.100      5.243386      0.099392      0.002724
   16   H     16    1.4430  1.100      5.123187     -1.628480     -0.000875
   17   H     17    1.4430  1.100      1.249754      1.779627      0.001168
   18   F     18    1.6820  1.100      1.155356      2.674661      0.003188
 ------------------------------------------------------------------------------
 One-electron integrals computed using PRISM.
 NBasis=   276 RedAO= T EigKep=  4.19D-06  NBF=   276
 NBsUse=   275 1.00D-06 EigRej=  6.02D-07 NBFU=   275
 ExpMin= 3.60D-02 ExpMax= 1.14D+04 ExpMxC= 1.72D+03 IAcc=3 IRadAn=         5 AccDes= 0.00D+00
 Harris functional with IExCor= 1009 and IRadAn=       5 diagonalized for initial guess.
 HarFok:  IExCor= 1009 AccDes= 0.00D+00 IRadAn=         5 IDoV= 1 UseB2=F ITyADJ=14
 ICtDFT=  3500011 ScaDFX=  1.000000  1.000000  1.000000  1.000000
 FoFCou: FMM=F IPFlag=           0 FMFlag=      100000 FMFlg1=           0
         NFxFlg=           0 DoJE=T BraDBF=F KetDBF=T FulRan=T
         wScrn=  0.000000 ICntrl=       500 IOpCl=  0 I1Cent=   200000004 NGrid=           0
         NMat0=    1 NMatS0=      1 NMatT0=    0 NMatD0=    1 NMtDS0=    0 NMtDT0=    0
 Petite list used in FoFCou.
 Requested convergence on RMS density matrix=1.00D-08 within 128 cycles.
 Requested convergence on MAX density matrix=1.00D-06.
 Requested convergence on             energy=1.00D-06.
 No special actions if energy rises.
 Inv3:  Mode=1 IEnd=    10090668.
 Iteration    1 A*A^-1 deviation from unit magnitude is 5.00D-15 for   1819.
 Iteration    1 A*A^-1 deviation from orthogonality  is 4.00D-15 for   1819   1349.
 Iteration    1 A^-1*A deviation from unit magnitude is 5.00D-15 for   1819.
 Iteration    1 A^-1*A deviation from orthogonality  is 1.88D-15 for   1833   1370.
 Error on total polarization charges =  0.00920
 SCF Done:  E(RM062X) =  -546.288169945     A.U. after   13 cycles
            NFock= 13  Conv=0.95D-08     -V/T= 1.9985

 **********************************************************************

            Population analysis using the SCF Density.

 **********************************************************************

 Orbital symmetries:
       Occupied  (A) (A) (A) (A) (A) (A) (A) (A) (A) (A) (A) (A)
                 (A) (A) (A) (A) (A) (A) (A) (A) (A) (A) (A) (A)
                 (A) (A) (A) (A) (A) (A) (A) (A) (A) (A) (A) (A)
                 (A) (A)
       Virtual   (A) (A) (A) (A) (A) (A) (A) (A) (A) (A) (A) (A)
                 (A) (A) (A) (A) (A) (A) (A) (A) (A) (A) (A) (A)
                 (A) (A) (A) (A) (A) (A) (A) (A) (A) (A) (A) (A)
                 (A) (A) (A) (A) (A) (A) (A) (A) (A) (A) (A) (A)
                 (A) (A) (A) (A) (A) (A) (A) (A) (A) (A) (A) (A)
                 (A) (A) (A) (A) (A) (A) (A) (A) (A) (A) (A) (A)
                 (A) (A) (A) (A) (A) (A) (A) (A) (A) (A) (A) (A)
                 (A) (A) (A) (A) (A) (A) (A) (A) (A) (A) (A) (A)
                 (A) (A) (A) (A) (A) (A) (A) (A) (A) (A) (A) (A)
                 (A) (A) (A) (A) (A) (A) (A) (A) (A) (A) (A) (A)
                 (A) (A) (A) (A) (A) (A) (A) (A) (A) (A) (A) (A)
                 (A) (A) (A) (A) (A) (A) (A) (A) (A) (A) (A) (A)
                 (A) (A) (A) (A) (A) (A) (A) (A) (A) (A) (A) (A)
                 (A) (A) (A) (A) (A) (A) (A) (A) (A) (A) (A) (A)
                 (A) (A) (A) (A) (A) (A) (A) (A) (A) (A) (A) (A)
                 (A) (A) (A) (A) (A) (A) (A) (A) (A) (A) (A) (A)
                 (A) (A) (A) (A) (A) (A) (A) (A) (A) (A) (A) (A)
                 (A) (A) (A) (A) (A) (A) (A) (A) (A) (A) (A) (A)
                 (A) (A) (A) (A) (A) (A) (A) (A) (A) (A) (A) (A)
                 (A) (A) (A) (A) (A) (A) (A) (A) (A)
 The electronic state is 1-A.
 Alpha  occ. eigenvalues --  -25.25056 -25.22823 -19.63827 -10.61560 -10.61204
 Alpha  occ. eigenvalues --  -10.52359 -10.52357 -10.52142 -10.52131 -10.51419
 Alpha  occ. eigenvalues --   -1.35566  -1.34634  -1.19003  -1.03106  -0.89302
 Alpha  occ. eigenvalues --   -0.88380  -0.75025  -0.73742  -0.72280  -0.66323
 Alpha  occ. eigenvalues --   -0.64480  -0.60493  -0.58978  -0.58604  -0.56521
 Alpha  occ. eigenvalues --   -0.53905  -0.53400  -0.52517  -0.51395  -0.51377
 Alpha  occ. eigenvalues --   -0.49822  -0.47690  -0.47391  -0.44453  -0.42032
 Alpha  occ. eigenvalues --   -0.34967  -0.33840  -0.32774
 Alpha virt. eigenvalues --   -0.00535  -0.00120   0.00823   0.01512   0.02053
 Alpha virt. eigenvalues --    0.02569   0.02587   0.03482   0.03624   0.04171
 Alpha virt. eigenvalues --    0.05108   0.06723   0.07322   0.07890   0.07951
 Alpha virt. eigenvalues --    0.09146   0.11080   0.11299   0.11787   0.11902
 Alpha virt. eigenvalues --    0.12975   0.13209   0.13577   0.14035   0.14243
 Alpha virt. eigenvalues --    0.14462   0.14850   0.15295   0.15843   0.16407
 Alpha virt. eigenvalues --    0.17304   0.17976   0.18535   0.20004   0.20536
 Alpha virt. eigenvalues --    0.21081   0.21813   0.22046   0.22873   0.23334
 Alpha virt. eigenvalues --    0.25506   0.26351   0.26688   0.29020   0.29769
 Alpha virt. eigenvalues --    0.29879   0.31510   0.32596   0.33543   0.33683
 Alpha virt. eigenvalues --    0.34776   0.35734   0.35991   0.36773   0.37167
 Alpha virt. eigenvalues --    0.39198   0.40886   0.42301   0.42525   0.43794
 Alpha virt. eigenvalues --    0.44247   0.45470   0.45701   0.51063   0.51848
 Alpha virt. eigenvalues --    0.54493   0.54631   0.56822   0.57215   0.58174
 Alpha virt. eigenvalues --    0.58777   0.59295   0.60725   0.61550   0.62701
 Alpha virt. eigenvalues --    0.64262   0.65184   0.65622   0.65627   0.67551
 Alpha virt. eigenvalues --    0.69624   0.70415   0.74423   0.74785   0.75926
 Alpha virt. eigenvalues --    0.76177   0.81496   0.81567   0.82533   0.85340
 Alpha virt. eigenvalues --    0.85593   0.89240   0.89997   0.93902   0.96686
 Alpha virt. eigenvalues --    0.99891   1.01099   1.01935   1.02190   1.04637
 Alpha virt. eigenvalues --    1.05894   1.07971   1.08166   1.10523   1.11615
 Alpha virt. eigenvalues --    1.16141   1.16527   1.19084   1.21985   1.23960
 Alpha virt. eigenvalues --    1.25251   1.27146   1.32814   1.33076   1.35226
 Alpha virt. eigenvalues --    1.36159   1.37081   1.43308   1.47175   1.50021
 Alpha virt. eigenvalues --    1.52095   1.52375   1.53067   1.53574   1.59395
 Alpha virt. eigenvalues --    1.62767   1.62938   1.63933   1.64864   1.67574
 Alpha virt. eigenvalues --    1.68198   1.70105   1.72034   1.73031   1.76551
 Alpha virt. eigenvalues --    1.76667   1.80570   1.81885   1.84698   1.85519
 Alpha virt. eigenvalues --    1.85741   1.90274   1.92996   1.94226   1.97253
 Alpha virt. eigenvalues --    1.98893   2.04317   2.04395   2.05676   2.05731
 Alpha virt. eigenvalues --    2.06398   2.11994   2.15474   2.17251   2.17448
 Alpha virt. eigenvalues --    2.18955   2.19868   2.21855   2.29430   2.36111
 Alpha virt. eigenvalues --    2.40844   2.46417   2.47971   2.50547   2.51037
 Alpha virt. eigenvalues --    2.54149   2.57884   2.63625   2.66937   2.70910
 Alpha virt. eigenvalues --    2.71646   2.75150   2.76757   2.76774   2.77799
 Alpha virt. eigenvalues --    2.79248   2.81091   2.86420   2.86592   2.87512
 Alpha virt. eigenvalues --    2.88357   2.90374   2.96532   2.98208   2.98460
 Alpha virt. eigenvalues --    3.03589   3.07873   3.11882   3.24259   3.27274
 Alpha virt. eigenvalues --    3.34401   3.39813   3.41981   3.55305   3.59779
 Alpha virt. eigenvalues --    3.61691   3.64449   3.75194   3.75574   3.86841
 Alpha virt. eigenvalues --    3.88893   3.89010   3.89130   3.98550   4.00387
 Alpha virt. eigenvalues --    4.04974   4.08510   4.14027   4.15262   4.17617
 Alpha virt. eigenvalues --    4.18163   4.19375   4.26246   4.26477   4.36444
 Alpha virt. eigenvalues --    4.92108   4.95387   4.95683   5.11333   5.23687
 Alpha virt. eigenvalues --    5.81148   6.41566   6.44802   6.50681   6.61226
 Alpha virt. eigenvalues --    6.84914   6.88614  23.72931  24.17296  24.26905
 Alpha virt. eigenvalues --   24.31712  24.54368  24.57475  24.72902  50.06740
 Alpha virt. eigenvalues --   66.91351  66.96554
          Condensed to atoms (all electrons):
               1          2          3          4          5          6
     1  C   11.444565  -0.971348  -1.539226  -0.300294  -1.537892  -0.966835
     2  C   -0.971348  12.902393   1.037804  -0.686538  -0.119553  -6.439456
     3  C   -1.539226   1.037804   6.222191   0.573141  -0.330872  -0.123441
     4  C   -0.300294  -0.686538   0.573141   6.412569   0.572828  -0.680744
     5  C   -1.537892  -0.119553  -0.330872   0.572828   6.221905   1.033430
     6  C   -0.966835  -6.439456  -0.123441  -0.680744   1.033430  12.899766
     7  F    0.484991  -0.259879  -0.039828   0.031239  -0.039994  -0.260098
     8  H   -0.173145   0.653052  -0.035532  -0.004441   0.019705  -0.120372
     9  H    0.015143  -0.084051   0.442116  -0.098185  -0.012069   0.077318
    10  H    0.032176  -0.020692  -0.064506   0.493574  -0.064571  -0.020515
    11  H    0.015169   0.077404  -0.012028  -0.098249   0.442215  -0.084244
    12  H   -0.172796  -0.119809   0.019641  -0.004438  -0.035750   0.652426
    13  O    0.030800  -0.009561   0.000185  -0.000925   0.000210  -0.009466
    14  C   -0.001386  -0.001268   0.000008   0.000358  -0.000011  -0.001466
    15  H    0.001674  -0.000412  -0.000177  -0.000003  -0.000176  -0.000397
    16  H   -0.001390   0.000446   0.000142  -0.000018   0.000140   0.000434
    17  H   -0.023311   0.004805   0.006999   0.000157   0.007059   0.005094
    18  F    0.132471  -0.033403  -0.023969   0.004450  -0.023979  -0.033696
               7          8          9         10         11         12
     1  C    0.484991  -0.173145   0.015143   0.032176   0.015169  -0.172796
     2  C   -0.259879   0.653052  -0.084051  -0.020692   0.077404  -0.119809
     3  C   -0.039828  -0.035532   0.442116  -0.064506  -0.012028   0.019641
     4  C    0.031239  -0.004441  -0.098185   0.493574  -0.098249  -0.004438
     5  C   -0.039994   0.019705  -0.012069  -0.064571   0.442215  -0.035750
     6  C   -0.260098  -0.120372   0.077318  -0.020515  -0.084244   0.652426
     7  F    9.314648  -0.029564  -0.000803   0.001225  -0.000799  -0.029521
     8  H   -0.029564   0.497013  -0.013224   0.000421   0.002798  -0.000280
     9  H   -0.000803  -0.013224   0.482136  -0.012770   0.000123   0.002796
    10  H    0.001225   0.000421  -0.012770   0.487836  -0.012776   0.000426
    11  H   -0.000799   0.002798   0.000123  -0.012776   0.482148  -0.013234
    12  H   -0.029521  -0.000280   0.002796   0.000426  -0.013234   0.497004
    13  O    0.007751   0.000679   0.000080  -0.000009   0.000080   0.000678
    14  C    0.004204  -0.000281  -0.000009   0.000006  -0.000009  -0.000279
    15  H   -0.001033  -0.000086   0.000000   0.000001   0.000000  -0.000086
    16  H   -0.000443   0.000063   0.000000  -0.000002   0.000000   0.000063
    17  H    0.023551  -0.001197   0.000142  -0.000123   0.000142  -0.001197
    18  F   -0.012914   0.000816  -0.000689   0.000171  -0.000689   0.000819
              13         14         15         16         17         18
     1  C    0.030800  -0.001386   0.001674  -0.001390  -0.023311   0.132471
     2  C   -0.009561  -0.001268  -0.000412   0.000446   0.004805  -0.033403
     3  C    0.000185   0.000008  -0.000177   0.000142   0.006999  -0.023969
     4  C   -0.000925   0.000358  -0.000003  -0.000018   0.000157   0.004450
     5  C    0.000210  -0.000011  -0.000176   0.000140   0.007059  -0.023979
     6  C   -0.009466  -0.001466  -0.000397   0.000434   0.005094  -0.033696
     7  F    0.007751   0.004204  -0.001033  -0.000443   0.023551  -0.012914
     8  H    0.000679  -0.000281  -0.000086   0.000063  -0.001197   0.000816
     9  H    0.000080  -0.000009   0.000000   0.000000   0.000142  -0.000689
    10  H   -0.000009   0.000006   0.000001  -0.000002  -0.000123   0.000171
    11  H    0.000080  -0.000009   0.000000   0.000000   0.000142  -0.000689
    12  H    0.000678  -0.000279  -0.000086   0.000063  -0.001197   0.000819
    13  O    8.182647   0.293689  -0.089701  -0.088832   0.004049  -0.002135
    14  C    0.293689   4.802319   0.410393   0.410786   0.001690  -0.000589
    15  H   -0.089701   0.410393   0.689911  -0.134820  -0.000891   0.000462
    16  H   -0.088832   0.410786  -0.134820   0.692934   0.000242  -0.000152
    17  H    0.004049   0.001690  -0.000891   0.000242   0.377650   0.322570
    18  F   -0.002135  -0.000589   0.000462  -0.000152   0.322570   8.942011
 Mulliken charges:
               1
     1  C   -0.469365
     2  C    0.070066
     3  C   -0.132648
     4  C   -0.214481
     5  C   -0.132626
     6  C    0.072262
     7  F   -0.192732
     8  H    0.203575
     9  H    0.201947
    10  H    0.180129
    11  H    0.201949
    12  H    0.203538
    13  O   -0.320220
    14  C    0.081845
    15  H    0.125340
    16  H    0.120404
    17  H    0.272568
    18  F   -0.271553
 Sum of Mulliken charges =  -0.00000
 Mulliken charges with hydrogens summed into heavy atoms:
               1
     1  C   -0.469365
     2  C    0.273642
     3  C    0.069299
     4  C   -0.034352
     5  C    0.069323
     6  C    0.275800
     7  F   -0.192732
    13  O   -0.320220
    14  C    0.327589
    18  F    0.001016
 Electronic spatial extent (au):  <R**2>=           2401.4989
 Charge=             -0.0000 electrons
 Dipole moment (field-independent basis, Debye):
    X=              0.5967    Y=             -2.2501    Z=              0.0026  Tot=              2.3279
 Quadrupole moment (field-independent basis, Debye-Ang):
   XX=            -26.1636   YY=            -67.5610   ZZ=            -50.9922
   XY=             -4.5752   XZ=              0.0157   YZ=             -0.0348
 Traceless Quadrupole moment (field-independent basis, Debye-Ang):
   XX=             22.0753   YY=            -19.3221   ZZ=             -2.7533
   XY=             -4.5752   XZ=              0.0157   YZ=             -0.0348
 Octapole moment (field-independent basis, Debye-Ang**2):
  XXX=            152.5576  YYY=            -14.2450  ZZZ=             -0.0054  XYY=             12.3260
  XXY=            -17.0810  XXZ=              0.0586  XZZ=              1.2847  YZZ=              2.3997
  YYZ=             -0.0269  XYZ=              0.0092
 Hexadecapole moment (field-independent basis, Debye-Ang**3):
 XXXX=          -1442.4213 YYYY=           -433.4954 ZZZZ=           -241.0759 XXXY=           -112.5823
 XXXZ=              0.2223 YYYX=            -37.4545 YYYZ=             -0.0178 ZZZX=             -0.0012
 ZZZY=             -0.0404 XXYY=           -459.5523 XXZZ=           -415.0732 YYZZ=           -109.1648
 XXYZ=             -0.1154 YYXZ=             -0.0494 ZZXY=              3.1463
 N-N= 4.855299357125D+02 E-N=-2.258121358488D+03  KE= 5.471271852076D+02
 D1PCM: PCM CHGder 1st derivatives, ID1Alg=3 FixD1E=F DoIter=F DoCFld=F I1PDM=0.
 Calling FoFJK, ICntrl=      2127 FMM=F ISym2X=0 I1Cent= 0 IOpClX= 0 NMat=1 NMatS=1 NMatT=0.
 ***** Axes restored to original set *****
 -------------------------------------------------------------------
 Center     Atomic                   Forces (Hartrees/Bohr)
 Number     Number              X              Y              Z
 -------------------------------------------------------------------
      1        6          -0.088813295   -0.000475877   -0.051278036
      2        6          -0.053293665   -0.000292986    0.015075229
      3        6           0.002604861    0.000298513    0.037224993
      4        6           0.039322414   -0.000259094    0.022706344
      5        6           0.033543898    0.000299420   -0.016355736
      6        6          -0.013591101   -0.000291981   -0.053689385
      7        9           0.023797884    0.003718698    0.013741676
      8        1          -0.065570282   -0.000078155    0.035861856
      9        1          -0.001659893    0.000026517    0.073825245
     10        1           0.064303489    0.000014339    0.037125390
     11        1           0.063103492    0.000025950   -0.038350617
     12        1          -0.001728884   -0.000078945   -0.074717311
     13        8           0.014694463    0.000480021    0.008476289
     14        6           0.062424871    0.000207229    0.036375643
     15        1          -0.039265770    0.071634218   -0.022834438
     16        1          -0.039167534   -0.071676264   -0.022777494
     17        1          -0.005275702   -0.031497804   -0.003050258
     18        9           0.004570756    0.027946204    0.002640611
 -------------------------------------------------------------------
 Cartesian Forces:  Max     0.088813295 RMS     0.036410751
 -----------------------------------------------------------------------------------------------
                       Internal Coordinate Forces (Hartree/Bohr or radian)
  Cent   Atom   N1       Length/X         N2         Alpha/Y        N3         Beta/Z          J
 -----------------------------------------------------------------------------------------------
      1  C 
      2  C        1   0.037554(     1)
      3  C        2   0.153725(     2)      1   0.163059(    18)
      4  C        3   0.221815(     3)      2   0.415792(    19)      1  -0.000545(    34)     0
      5  C        4   0.184265(     4)      3   0.451023(    20)      2  -0.000868(    35)     0
      6  C        5   0.078623(     5)      4   0.252864(    21)      3  -0.000770(    36)     0
      7  F        1  -0.025147(     6)      2   0.000001(    22)      3   0.000106(    37)     0
      8  H        2   0.074716(     7)      3   0.003265(    23)      4  -0.000128(    38)     0
      9  H        3   0.073825(     8)      4   0.003137(    24)      5   0.000043(    39)     0
     10  H        4   0.074251(     9)      5  -0.000000(    25)      6   0.000023(    40)     0
     11  H        5   0.073825(    10)      6  -0.003139(    26)      1   0.000042(    41)     0
     12  H        6   0.074717(    11)      1  -0.003267(    27)      2  -0.000129(    42)     0
     13  O        7   0.001518(    12)      1   0.000007(    28)      3  -0.000006(    43)     0
     14  C       13   0.018482(    13)      1   0.000104(    29)      2  -0.000001(    44)     0
     15  H       14   0.084748(    14)      1   0.006652(    30)      2   0.000118(    45)     0
     16  H       14   0.084728(    15)      1   0.006426(    31)      2  -0.000118(    46)     0
     17  H        7  -0.003356(    16)      1   0.005582(    32)      2   0.000007(    47)     0
     18  F       17   0.028438(    17)      7  -0.000588(    33)      1  -0.000001(    48)     0
 -----------------------------------------------------------------------------------------------
 Internal  Forces:  Max     0.451022935 RMS     0.114118688

 GradGradGradGradGradGradGradGradGradGradGradGradGradGradGradGradGradGrad
 Berny optimization.
 Search for a local minimum.
 Step number   1 out of a maximum of   27
 All quantities printed in internal units (Hartrees-Bohrs-Radians)
 Second derivative matrix not updated -- first step.
 The second derivative matrix:
                          d1        d2        d3        d4        d5
           d1           0.95300
           d2          -0.05489   0.95300
           d3          -0.33597   0.33597   1.34386
           d4          -0.28107   0.05489   0.33597   0.95300
           d5           0.05489  -0.28107  -0.33597  -0.05489   0.95300
           d6           0.00000   0.00000  -0.00000  -0.00000  -0.00000
           d7          -0.00000  -0.00000  -0.00000   0.00000   0.00000
           d8           0.00000   0.00000   0.00000  -0.00000  -0.00000
           d9          -0.00000  -0.00000  -0.00000   0.00000   0.00000
           d10          0.00000  -0.00000  -0.00000   0.00000  -0.00000
           d11         -0.00000  -0.00000   0.00000  -0.00000   0.00000
           d12          0.00000   0.00000  -0.00000  -0.00000  -0.00000
           d13          0.00000   0.00000  -0.00000  -0.00000  -0.00000
           d14          0.00000   0.00000  -0.00000  -0.00000  -0.00000
           d15         -0.00000  -0.00000  -0.00000   0.00000   0.00000
           d16         -0.00000  -0.00000   0.00000   0.00000   0.00000
           d17         -0.00000  -0.00000   0.00000   0.00000   0.00000
                          d6        d7        d8        d9        d10
           d6           0.45621
           d7          -0.00000   0.47688
           d8          -0.00000   0.00000   0.47688
           d9           0.00000  -0.00000   0.00000   0.47688
           d10          0.00000  -0.00000   0.00000  -0.00000   0.47688
           d11          0.00000   0.00000  -0.00000   0.00000  -0.00000
           d12         -0.00000   0.00000  -0.00000   0.00000   0.00000
           d13         -0.00000   0.00000  -0.00000   0.00000   0.00000
           d14          0.00000  -0.00000  -0.00000   0.00000   0.00000
           d15          0.00000   0.00000   0.00000  -0.00000  -0.00000
           d16         -0.00000  -0.00000   0.00000  -0.00000  -0.00000
           d17          0.00000  -0.00000   0.00000  -0.00000  -0.00000
                          d11       d12       d13       d14       d15
           d11          0.47688
           d12          0.00000   0.02330
           d13          0.00000  -0.00000   1.04823
           d14          0.00000   0.00000   0.00000   0.47688
           d15         -0.00000   0.00000  -0.00000   0.00000   0.47688
           d16         -0.00000   0.00000  -0.00000   0.00000  -0.00000
           d17         -0.00000   0.00000   0.00000   0.00000  -0.00000
                          d16       d17
           d16          0.02721
           d17          0.00000   0.70673
 ITU=  0
     Eigenvalues ---    0.02330   0.02721   0.45621   0.47688   0.47688
     Eigenvalues ---    0.47688   0.47688   0.47688   0.47688   0.47688
     Eigenvalues ---    0.67193   0.67193   0.67193   0.70673   1.04823
     Eigenvalues ---    1.12429   2.01579
 RFO step:  Lambda=-1.63341039D-01 EMin= 2.33007068D-02
 Linear search not attempted -- first point.
 Maximum step size (   0.300) exceeded in Quadratic search.
    -- Step size scaled by   0.669
 Variable       Old X    -DE/DX   Delta X   Delta X   Delta X     New X
                                 (Linear)    (Quad)   (Total)
    d1        2.45664   0.03755   0.00000   0.07625   0.07625   2.53289
    d2        2.45664   0.15373   0.00000   0.08713   0.08713   2.54377
    d3        2.45664   0.22181   0.00000   0.09555   0.09555   2.55219
    d4        2.45664   0.18426   0.00000   0.10152   0.10152   2.55817
    d5        2.45664   0.07862   0.00000   0.09908   0.09908   2.55573
    d6        2.64562  -0.02515   0.00000  -0.02717  -0.02717   2.61845
    d7        1.88973   0.07472   0.00000   0.07812   0.07812   1.96785
    d8        1.88973   0.07383   0.00000   0.07719   0.07719   1.96692
    d9        1.88973   0.07425   0.00000   0.07764   0.07764   1.96736
   d10        1.88973   0.07382   0.00000   0.07719   0.07719   1.96692
   d11        1.88973   0.07472   0.00000   0.07812   0.07812   1.96785
   d12        5.29123   0.00152   0.00000   0.00544   0.00544   5.29668
   d13        2.26767   0.01848   0.00000   0.01021   0.01021   2.27788
   d14        1.88973   0.08475   0.00000   0.08861   0.08861   1.97834
   d15        1.88973   0.08473   0.00000   0.08859   0.08859   1.97832
   d16        4.34637  -0.00336   0.00000  -0.01179  -0.01179   4.33458
   d17        1.70075   0.02844   0.00000   0.02188   0.02188   1.72263
         Item               Value     Threshold  Converged?
 Maximum Force            0.221815     0.000450     NO 
 RMS     Force            0.096441     0.000300     NO 
 Maximum Displacement     0.101524     0.001800     NO 
 RMS     Displacement     0.072761     0.001200     NO 
 Predicted change in Energy=-8.009527D-02
 GradGradGradGradGradGradGradGradGradGradGradGradGradGradGradGradGradGrad

 ---------------------------------------------------------------------------------------------------
                            Z-MATRIX (ANGSTROMS AND DEGREES)
   CD    Cent   Atom    N1       Length/X        N2       Alpha/Y        N3        Beta/Z          J
 ---------------------------------------------------------------------------------------------------
      1      1  C 
      2      2  C        1   1.340349(     1)
      3      3  C        2   1.346107(     2)      1  120.000(    18)
      4      4  C        3   1.350561(     3)      2  120.000(    19)      1    0.000(    34)      0
      5      5  C        4   1.353724(     4)      3  120.000(    20)      2    0.000(    35)      0
      6      6  C        5   1.352432(     5)      4  120.000(    21)      3    0.000(    36)      0
      7      7  F        1   1.385622(     6)      2  120.000(    22)      3  180.000(    37)      0
      8      8  H        2   1.041341(     7)      3  120.000(    23)      4  180.000(    38)      0
      9      9  H        3   1.040848(     8)      4  120.000(    24)      5  180.000(    39)      0
     10     10  H        4   1.041083(     9)      5  120.000(    25)      6  180.000(    40)      0
     11     11  H        5   1.040847(    10)      6  120.000(    26)      1  180.000(    41)      0
     12     12  H        6   1.041341(    11)      1  120.000(    27)      2  180.000(    42)      0
     13     13  O        7   2.802881(    12)      1  179.900(    28)      3  180.000(    43)      0
     14     14  C       13   1.205404(    13)      1  179.900(    29)      2  180.000(    44)      0
     15     15  H       14   1.046892(    14)      1  120.000(    30)      2   90.000(    45)      0
     16     16  H       14   1.046880(    15)      1  120.000(    31)      2  -90.000(    46)      0
     17     17  H        7   2.293761(    16)      1  100.000(    32)      2   90.000(    47)      0
     18     18  F       17   0.911578(    17)      7  160.000(    33)      1    0.000(    48)      0
 ---------------------------------------------------------------------------------------------------
                         Z-Matrix orientation:                         
 ---------------------------------------------------------------------
 Center     Atomic      Atomic             Coordinates (Angstroms)
 Number     Number       Type             X           Y           Z
 ---------------------------------------------------------------------
      1          6           0        0.000000    0.000000    0.000000
      2          6           0        0.000000    0.000000    1.340349
      3          6           0        1.165763    0.000000    2.013402
      4          6           0        2.335383    0.000000    1.338122
      5          6           0        2.335383    0.000000   -0.015603
      6          6           0        1.164143    0.000000   -0.691818
      7          9           0       -1.199984   -0.000000   -0.692811
      8          1           0       -0.901828   -0.000000    1.861019
      9          1           0        1.165763   -0.000000    3.054250
     10          1           0        3.236988   -0.000000    1.858663
     11          1           0        3.236784   -0.000000   -0.536026
     12          1           0        1.151024   -0.000000   -1.733077
     13          8           0       -3.624900   -0.000000   -2.098486
     14          6           0       -4.667050   -0.000000   -2.704226
     15          1           0       -5.119959    0.906635   -2.966655
     16          1           0       -5.119954   -0.906625   -2.966652
     17          1           0       -1.544928    2.258914   -0.891965
     18          9           0       -1.407841    3.156643   -0.812818
 ---------------------------------------------------------------------
                    Distance matrix (angstroms):
                    1          2          3          4          5
     1  C    0.000000
     2  C    1.340349   0.000000
     3  C    2.326541   1.346107   0.000000
     4  C    2.691577   2.335384   1.350561   0.000000
     5  C    2.335436   2.700485   2.341981   1.353724   0.000000
     6  C    1.354194   2.341994   2.705221   2.343600   1.352432
     7  F    1.385622   2.360868   3.594488   4.077193   3.599643
     8  H    2.068015   1.041341   2.073198   3.279170   3.741824
     9  H    3.269166   2.072790   1.040848   2.076803   3.285119
    10  H    3.732656   3.278222   2.076997   1.041083   2.079847
    11  H    3.280868   3.741330   3.284618   2.079652   1.040847
    12  H    2.080484   3.281890   3.746508   3.291651   2.086247
    13  O    4.188501   4.996547   6.313325   6.880062   6.313745
    14  C    5.393903   6.175754   7.501848   8.085459   7.500851
    15  H    5.986402   6.751759   8.070518   8.656513   8.069252
    16  H    5.986395   6.751752   8.070511   8.656506   8.069245
    17  H    2.878384   3.531673   4.570743   5.013261   4.574660
    18  F    3.550646   4.072166   4.957353   5.348146   4.961016
                    6          7          8          9         10
     6  C    0.000000
     7  F    2.364127   0.000000
     8  H    3.284085   2.571176   0.000000
     9  H    3.746069   4.431390   2.387201   0.000000
    10  H    3.286585   5.118275   4.138816   2.391527   0.000000
    11  H    2.078487   4.439536   4.782670   4.144781   2.394690
    12  H    1.041341   2.570874   4.139049   4.787350   4.153534
    13  O    4.991357   2.802881   4.805497   7.035704   7.921145
    14  C    6.168679   4.008284   5.917632   8.196448   9.126542
    15  H    6.744391   4.621532   6.474647   8.751205   9.692484
    16  H    6.744384   4.621525   6.474641   8.751198   9.692477
    17  H    3.532961   2.293761   3.618727   5.293689   5.961155
    18  F    4.073591   3.165754   4.167715   5.616231   6.218975
                   11         12         13         14         15
    11  H    0.000000
    12  H    2.404854   0.000000
    13  O    7.037328   4.789882   0.000000
    14  C    8.195833   5.898569   1.205404   0.000000
    15  H    8.750148   6.455147   1.952154   1.046892   0.000000
    16  H    8.750141   6.455141   1.952145   1.046880   1.813260
    17  H    5.300391   3.616396   3.299192   4.258477   4.349005
    18  F    5.622593   4.166421   4.066041   4.915716   4.845758
                   16         17         18
    16  H    0.000000
    17  H    5.206321   0.000000
    18  F    5.910070   0.911578   0.000000
 Stoichiometry    C7H8F2O
 Framework group  C1[X(C7H8F2O)]
 Deg. of freedom    48
 Full point group                 C1      NOp   1
 Largest Abelian subgroup         C1      NOp   1
 Largest concise Abelian subgroup C1      NOp   1
                         Standard orientation:                         
 ---------------------------------------------------------------------
 Center     Atomic      Atomic             Coordinates (Angstroms)
 Number     Number       Type             X           Y           Z
 ---------------------------------------------------------------------
      1          6           0       -0.673327   -0.357963   -0.008085
      2          6           0       -1.341404   -0.305697   -1.168893
      3          6           0       -2.684313   -0.212963   -1.168991
      4          6           0       -3.358498   -0.172585    0.000564
      5          6           0       -2.683755   -0.225372    1.172957
      6          6           0       -1.334536   -0.318542    1.173055
      7          9           0        0.709003   -0.453420   -0.007984
      8          1           0       -0.821578   -0.336831   -2.070671
      9          1           0       -3.203108   -0.172376   -2.070417
     10          1           0       -4.397108   -0.100863    0.000489
     11          1           0       -3.203334   -0.194253    2.074307
     12          1           0       -0.804199   -0.359894    2.068278
     13          8           0        3.505218   -0.646539   -0.002889
     14          6           0        4.707751   -0.729599    0.000710
     15          1           0        5.292410    0.138804    0.006341
     16          1           0        5.167490   -1.670122   -0.003214
     17          1           0        1.261980    1.772656    0.003948
     18          9           0        1.165907    2.679145    0.008667
 ---------------------------------------------------------------------
 Rotational constants (GHZ):           2.0374212           0.4878799           0.4521610
 Standard basis: 6-311++G(d,p) (5D, 7F)
 There are   286 symmetry adapted cartesian basis functions of A   symmetry.
 There are   276 symmetry adapted basis functions of A   symmetry.
   276 basis functions,   432 primitive gaussians,   286 cartesian basis functions
    38 alpha electrons       38 beta electrons
       nuclear repulsion energy       475.8886510421 Hartrees.
 NAtoms=   18 NActive=   18 NUniq=   18 SFac= 1.00D+00 NAtFMM=   60 NAOKFM=F Big=F
 Integral buffers will be    131072 words long.
 Raffenetti 2 integral format.
 Two-electron integral symmetry is turned on.
 ------------------------------------------------------------------------------
 Polarizable Continuum Model (PCM)
 =================================
 Model                : PCM.
 Atomic radii         : UFF (Universal Force Field).
 Polarization charges : Total charges.
 Charge compensation  : None.
 Solution method      : On-the-fly selection.
 Cavity type          : Scaled VdW (van der Waals Surface) (Alpha=1.100).
 Cavity algorithm     : GePol (No added spheres)
                        Default sphere list used, NSphG=   18.
                        Lebedev-Laikov grids with approx.  5.0 points / Ang**2.
                        Smoothing algorithm: York/Karplus (Gamma=1.0000).
                        Polarization charges: spherical gaussians, with
                                              point-specific exponents (IZeta= 3).
                        Self-potential: point-specific (ISelfS= 7).
                        Self-field    : sphere-specific E.n sum rule (ISelfD= 2).
 1st derivatives      : Analytical E(r).r(x)/FMM algorithm (CHGder, D1EAlg=3).
                        Cavity 1st derivative terms included.
 Solvent              : Chloroform, Eps=   4.711300 Eps(inf)=   2.090627
 ------------------------------------------------------------------------------
 Spheres list:
 ISph  on   Nord     Re0    Alpha      Xe            Ye            Ze
    1   C      1    1.9255  1.100     -0.673327     -0.357963     -0.008085
    2   C      2    1.9255  1.100     -1.341404     -0.305697     -1.168893
    3   C      3    1.9255  1.100     -2.684313     -0.212963     -1.168991
    4   C      4    1.9255  1.100     -3.358498     -0.172585      0.000564
    5   C      5    1.9255  1.100     -2.683755     -0.225372      1.172957
    6   C      6    1.9255  1.100     -1.334536     -0.318542      1.173055
    7   F      7    1.6820  1.100      0.709003     -0.453420     -0.007984
    8   H      8    1.4430  1.100     -0.821578     -0.336831     -2.070671
    9   H      9    1.4430  1.100     -3.203108     -0.172376     -2.070417
   10   H     10    1.4430  1.100     -4.397108     -0.100863      0.000489
   11   H     11    1.4430  1.100     -3.203334     -0.194253      2.074307
   12   H     12    1.4430  1.100     -0.804199     -0.359894      2.068278
   13   O     13    1.7500  1.100      3.505218     -0.646539     -0.002889
   14   C     14    1.9255  1.100      4.707751     -0.729599      0.000710
   15   H     15    1.4430  1.100      5.292410      0.138804      0.006341
   16   H     16    1.4430  1.100      5.167490     -1.670122     -0.003214
   17   H     17    1.4430  1.100      1.261980      1.772656      0.003948
   18   F     18    1.6820  1.100      1.165907      2.679145      0.008667
 ------------------------------------------------------------------------------
 One-electron integrals computed using PRISM.
 NBasis=   276 RedAO= T EigKep=  5.75D-06  NBF=   276
 NBsUse=   275 1.00D-06 EigRej=  8.36D-07 NBFU=   275
 Initial guess from the checkpoint file:  "model_H1.chk"
 B after Tr=    -0.000000    0.000000   -0.000000
         Rot=    0.999999   -0.001255   -0.000064    0.000013 Ang=  -0.14 deg.
 ExpMin= 3.60D-02 ExpMax= 1.14D+04 ExpMxC= 1.72D+03 IAcc=3 IRadAn=         5 AccDes= 0.00D+00
 Harris functional with IExCor= 1009 and IRadAn=       5 diagonalized for initial guess.
 HarFok:  IExCor= 1009 AccDes= 0.00D+00 IRadAn=         5 IDoV= 1 UseB2=F ITyADJ=14
 ICtDFT=  3500011 ScaDFX=  1.000000  1.000000  1.000000  1.000000
 FoFCou: FMM=F IPFlag=           0 FMFlag=      100000 FMFlg1=           0
         NFxFlg=           0 DoJE=T BraDBF=F KetDBF=T FulRan=T
         wScrn=  0.000000 ICntrl=       500 IOpCl=  0 I1Cent=   200000004 NGrid=           0
         NMat0=    1 NMatS0=      1 NMatT0=    0 NMatD0=    1 NMtDS0=    0 NMtDT0=    0
 Petite list used in FoFCou.
 Requested convergence on RMS density matrix=1.00D-08 within 128 cycles.
 Requested convergence on MAX density matrix=1.00D-06.
 Requested convergence on             energy=1.00D-06.
 No special actions if energy rises.
 Inv3:  Mode=1 IEnd=    10212075.
 Iteration    1 A*A^-1 deviation from unit magnitude is 5.55D-15 for   1825.
 Iteration    1 A*A^-1 deviation from orthogonality  is 4.72D-15 for   1831   1755.
 Iteration    1 A^-1*A deviation from unit magnitude is 5.77D-15 for   1825.
 Iteration    1 A^-1*A deviation from orthogonality  is 2.60D-15 for   1838    675.
 Error on total polarization charges =  0.00985
 SCF Done:  E(RM062X) =  -546.364311447     A.U. after   13 cycles
            NFock= 13  Conv=0.39D-08     -V/T= 2.0013
 D1PCM: PCM CHGder 1st derivatives, ID1Alg=3 FixD1E=F DoIter=F DoCFld=F I1PDM=0.
 Calling FoFJK, ICntrl=      2127 FMM=F ISym2X=0 I1Cent= 0 IOpClX= 0 NMat=1 NMatS=1 NMatT=0.
 ***** Axes restored to original set *****
 -------------------------------------------------------------------
 Center     Atomic                   Forces (Hartrees/Bohr)
 Number     Number              X              Y              Z
 -------------------------------------------------------------------
      1        6          -0.029567412   -0.000662264   -0.031837036
      2        6          -0.028191625   -0.000219018    0.009441063
      3        6           0.007926580    0.000250309    0.009856437
      4        6           0.012337894   -0.000209196    0.004898156
      5        6           0.005676483    0.000250989   -0.001309972
      6        6          -0.009857818   -0.000213942   -0.015936267
      7        9           0.019408197    0.003593361    0.012042057
      8        1          -0.030071649   -0.000082427    0.015254728
      9        1          -0.001282507    0.000034343    0.033237033
     10        1           0.028949211    0.000019831    0.016538132
     11        1           0.028141911    0.000030211   -0.017781456
     12        1          -0.001561439   -0.000084784   -0.033292126
     13        8           0.001612527    0.000481842    0.000873612
     14        6           0.037421853    0.000235192    0.021897359
     15        1          -0.020162971    0.032076894   -0.011758378
     16        1          -0.020045916   -0.032142393   -0.011692294
     17        1          -0.002966204   -0.016269492   -0.001725466
     18        9           0.002232885    0.012910545    0.001294418
 -------------------------------------------------------------------
 Cartesian Forces:  Max     0.037421853 RMS     0.016711589
 -----------------------------------------------------------------------------------------------
                       Internal Coordinate Forces (Hartree/Bohr or radian)
  Cent   Atom   N1       Length/X         N2         Alpha/Y        N3         Beta/Z          J
 -----------------------------------------------------------------------------------------------
      1  C 
      2  C        1   0.020151(     1)
      3  C        2   0.058247(     2)      1   0.031328(    18)
      4  C        3   0.078585(     3)      2   0.126631(    19)      1  -0.000308(    34)     0
      5  C        4   0.069075(     4)      3   0.148705(    20)      2  -0.000687(    35)     0
      6  C        5   0.035269(     5)      4   0.092851(    21)      3  -0.000643(    36)     0
      7  F        1  -0.020621(     6)      2  -0.001876(    22)      3   0.000190(    37)     0
      8  H        2   0.033670(     7)      3   0.003591(    23)      4  -0.000140(    38)     0
      9  H        3   0.033237(     8)      4   0.002523(    24)      5   0.000059(    39)     0
     10  H        4   0.033340(     9)      5  -0.000299(    25)      6   0.000034(    40)     0
     11  H        5   0.033262(    10)      6  -0.002613(    26)      1   0.000051(    41)     0
     12  H        6   0.033309(    11)      1  -0.002247(    27)      2  -0.000144(    42)     0
     13  O        7   0.001357(    12)      1   0.000006(    28)      3  -0.000006(    43)     0
     14  C       13   0.003190(    13)      1   0.000102(    29)      2  -0.000001(    44)     0
     15  H       14   0.039450(    14)      1   0.008260(    30)      2   0.000112(    45)     0
     16  H       14   0.039439(    15)      1   0.007965(    31)      2  -0.000114(    46)     0
     17  H        7  -0.003160(    16)      1   0.005643(    32)      2   0.000021(    47)     0
     18  F       17   0.013163(    17)      7  -0.000517(    33)      1  -0.000003(    48)     0
 -----------------------------------------------------------------------------------------------
 Internal  Forces:  Max     0.148704895 RMS     0.039061571

 GradGradGradGradGradGradGradGradGradGradGradGradGradGradGradGradGradGrad
 Berny optimization.
 Search for a local minimum.
 Step number   2 out of a maximum of   27
 All quantities printed in internal units (Hartrees-Bohrs-Radians)
 Update second derivatives using D2CorN and points    1    2
 DE= -7.61D-02 DEPred=-8.01D-02 R= 9.51D-01
 TightC=F SS=  1.41D+00  RLast= 3.00D-01 DXNew= 5.0454D-01 9.0000D-01
 Trust test= 9.51D-01 RLast= 3.00D-01 DXMaxT set to 5.05D-01
 The second derivative matrix:
                          d1        d2        d3        d4        d5
           d1           0.95700
           d2          -0.04973   0.95959
           d3          -0.32908   0.34459   1.35485
           d4          -0.27484   0.06281   0.34628   0.96251
           d5           0.06042  -0.27398  -0.32660  -0.04636   0.96061
           d6           0.00262   0.00278   0.00261   0.00317   0.00329
           d7           0.00365   0.00479   0.00650   0.00579   0.00508
           d8           0.00362   0.00475   0.00644   0.00574   0.00504
           d9           0.00368   0.00482   0.00653   0.00583   0.00512
           d10          0.00361   0.00473   0.00643   0.00573   0.00503
           d11          0.00381   0.00496   0.00670   0.00600   0.00528
           d12          0.00016   0.00022   0.00033   0.00027   0.00023
           d13          0.00221   0.00261   0.00302   0.00307   0.00292
           d14          0.00361   0.00482   0.00671   0.00586   0.00507
           d15          0.00361   0.00482   0.00671   0.00586   0.00507
           d16         -0.00026  -0.00039  -0.00061  -0.00048  -0.00038
           d17          0.00049   0.00074   0.00116   0.00092   0.00074
                          d6        d7        d8        d9        d10
           d6           0.45383
           d7           0.00284   0.48017
           d8           0.00280   0.00326   0.48012
           d9           0.00281   0.00332   0.00330   0.48024
           d10          0.00281   0.00325   0.00323   0.00329   0.48010
           d11          0.00279   0.00345   0.00342   0.00348   0.00341
           d12          0.00023   0.00013   0.00013   0.00013   0.00013
           d13         -0.00025   0.00221   0.00218   0.00220   0.00218
           d14          0.00342   0.00319   0.00316   0.00323   0.00315
           d15          0.00341   0.00319   0.00316   0.00323   0.00315
           d16         -0.00053  -0.00019  -0.00019  -0.00020  -0.00019
           d17          0.00098   0.00038   0.00038   0.00039   0.00038
                          d11       d12       d13       d14       d15
           d11          0.48049
           d12          0.00014   0.02330
           d13          0.00223   0.00014   1.04875
           d14          0.00336   0.00011   0.00243   0.47988
           d15          0.00336   0.00011   0.00243   0.00299   0.47988
           d16         -0.00022   0.00000  -0.00029  -0.00014  -0.00014
           d17          0.00042  -0.00000   0.00055   0.00028   0.00028
                          d16       d17
           d16          0.02719
           d17          0.00003   0.70668
 ITU=  1  0
     Eigenvalues ---    0.02330   0.02719   0.45247   0.47675   0.47688
     Eigenvalues ---    0.47688   0.47688   0.47688   0.47688   0.49699
     Eigenvalues ---    0.67187   0.67193   0.70510   0.70851   1.04891
     Eigenvalues ---    1.12473   2.02302
 RFO step:  Lambda=-4.15263950D-03 EMin= 2.33020501D-02
 Quartic linear search produced a step of  0.90939.
 Variable       Old X    -DE/DX   Delta X   Delta X   Delta X     New X
                                 (Linear)    (Quad)   (Total)
    d1        2.53289   0.02015   0.06934   0.00328   0.07262   2.60551
    d2        2.54377   0.05825   0.07923  -0.00882   0.07041   2.61418
    d3        2.55219   0.07858   0.08689  -0.02269   0.06420   2.61639
    d4        2.55817   0.06907   0.09232  -0.01331   0.07901   2.63718
    d5        2.55573   0.03527   0.09010  -0.00152   0.08858   2.64431
    d6        2.61845  -0.02062  -0.02471  -0.04505  -0.06976   2.54868
    d7        1.96785   0.03367   0.07104   0.01505   0.08609   2.05394
    d8        1.96692   0.03324   0.07020   0.01474   0.08494   2.05185
    d9        1.96736   0.03334   0.07060   0.01446   0.08506   2.05243
   d10        1.96692   0.03326   0.07020   0.01484   0.08504   2.05196
   d11        1.96785   0.03331   0.07104   0.01358   0.08462   2.05247
   d12        5.29668   0.00136   0.00495   0.07216   0.07711   5.37379
   d13        2.27788   0.00319   0.00929  -0.00902   0.00027   2.27815
   d14        1.97834   0.03945   0.08058   0.02219   0.10277   2.08111
   d15        1.97832   0.03944   0.08056   0.02218   0.10275   2.08106
   d16        4.33458  -0.00316  -0.01072  -0.14860  -0.15932   4.17526
   d17        1.72263   0.01316   0.01990   0.00335   0.02325   1.74588
         Item               Value     Threshold  Converged?
 Maximum Force            0.078585     0.000450     NO 
 RMS     Force            0.038568     0.000300     NO 
 Maximum Displacement     0.159319     0.001800     NO 
 RMS     Displacement     0.084906     0.001200     NO 
 Predicted change in Energy=-1.548061D-02
 GradGradGradGradGradGradGradGradGradGradGradGradGradGradGradGradGradGrad

 ---------------------------------------------------------------------------------------------------
                            Z-MATRIX (ANGSTROMS AND DEGREES)
   CD    Cent   Atom    N1       Length/X        N2       Alpha/Y        N3        Beta/Z          J
 ---------------------------------------------------------------------------------------------------
      1      1  C 
      2      2  C        1   1.378779(     1)
      3      3  C        2   1.383367(     2)      1  120.000(    18)
      4      4  C        3   1.384533(     3)      2  120.000(    19)      1    0.000(    34)      0
      5      5  C        4   1.395536(     4)      3  120.000(    20)      2    0.000(    35)      0
      6      6  C        5   1.399308(     5)      4  120.000(    21)      3    0.000(    36)      0
      7      7  F        1   1.348704(     6)      2  120.000(    22)      3  180.000(    37)      0
      8      8  H        2   1.086898(     7)      3  120.000(    23)      4  180.000(    38)      0
      9      9  H        3   1.085794(     8)      4  120.000(    24)      5  180.000(    39)      0
     10     10  H        4   1.086097(     9)      5  120.000(    25)      6  180.000(    40)      0
     11     11  H        5   1.085848(    10)      6  120.000(    26)      1  180.000(    41)      0
     12     12  H        6   1.086121(    11)      1  120.000(    27)      2  180.000(    42)      0
     13     13  O        7   2.843687(    12)      1  179.900(    28)      3  180.000(    43)      0
     14     14  C       13   1.205546(    13)      1  179.900(    29)      2  180.000(    44)      0
     15     15  H       14   1.101277(    14)      1  120.000(    30)      2   90.000(    45)      0
     16     16  H       14   1.101251(    15)      1  120.000(    31)      2  -90.000(    46)      0
     17     17  H        7   2.209453(    16)      1  100.000(    32)      2   90.000(    47)      0
     18     18  F       17   0.923881(    17)      7  160.000(    33)      1    0.000(    48)      0
 ---------------------------------------------------------------------------------------------------
                         Z-Matrix orientation:                         
 ---------------------------------------------------------------------
 Center     Atomic      Atomic             Coordinates (Angstroms)
 Number     Number       Type             X           Y           Z
 ---------------------------------------------------------------------
      1          6           0        0.000000    0.000000    0.000000
      2          6           0        0.000000    0.000000    1.378779
      3          6           0        1.198031    0.000000    2.070462
      4          6           0        2.397071    0.000000    1.378196
      5          6           0        2.397071    0.000000   -0.017341
      6          6           0        1.185235    0.000000   -0.716995
      7          9           0       -1.168012   -0.000000   -0.674352
      8          1           0       -0.941282   -0.000000    1.922228
      9          1           0        1.198031   -0.000000    3.156256
     10          1           0        3.337659   -0.000000    1.921244
     11          1           0        3.337443   -0.000000   -0.560265
     12          1           0        1.163031   -0.000000   -1.802889
     13          8           0       -3.628232   -0.000000   -2.100492
     14          6           0       -4.670495   -0.000000   -2.706320
     15          1           0       -5.146929    0.953734   -2.982390
     16          1           0       -5.146917   -0.953711   -2.982383
     17          1           0       -1.500278    2.175886   -0.866186
     18          9           0       -1.361341    3.085732   -0.785971
 ---------------------------------------------------------------------
                    Distance matrix (angstroms):
                    1          2          3          4          5
     1  C    0.000000
     2  C    1.378779   0.000000
     3  C    2.392089   1.383367   0.000000
     4  C    2.765027   2.397071   1.384533   0.000000
     5  C    2.397134   2.774004   2.407617   1.395536   0.000000
     6  C    1.385230   2.407706   2.787486   2.420407   1.399308
     7  F    1.348704   2.362118   3.623833   4.113730   3.625119
     8  H    2.140320   1.086898   2.144442   3.382391   3.860897
     9  H    3.375978   2.143526   1.085794   2.144574   3.392553
    10  H    3.851123   3.381455   2.144825   1.086097   2.154720
    11  H    3.384143   3.859847   3.390842   2.154514   1.085848
    12  H    2.145472   3.387573   3.873509   3.412060   2.170492
    13  O    4.192390   5.026867   6.378845   6.957410   6.375249
    14  C    5.397934   6.204963   7.566852   8.162951   7.561819
    15  H    6.024544   6.813243   8.166972   8.765629   8.161682
    16  H    6.024527   6.813226   8.166956   8.765613   8.161667
    17  H    2.781294   3.467735   4.543044   4.996105   4.543606
    18  F    3.463054   4.007634   4.922533   5.322689   4.923231
                    6          7          8          9         10
     6  C    0.000000
     7  F    2.353634   0.000000
     8  H    3.389332   2.606460   0.000000
     9  H    3.873272   4.502413   2.469713   0.000000
    10  H    3.404884   5.199827   4.278941   2.470479   0.000000
    11  H    2.157908   4.506900   4.946742   4.288311   2.481509
    12  H    1.086121   2.589857   4.278391   4.959268   4.312560
    13  O    5.008346   2.843687   4.837559   7.136260   8.043507
    14  C    6.184415   4.049232   5.943946   8.295143   9.249048
    15  H    6.792490   4.697704   6.530877   8.879813   9.845987
    16  H    6.792474   4.697686   6.530861   8.879798   9.845972
    17  H    3.459584   2.209453   3.580812   5.309933   5.992486
    18  F    4.001443   3.093796   4.127049   5.622569   6.239500
                   11         12         13         14         15
    11  H    0.000000
    12  H    2.504432   0.000000
    13  O    7.133929   4.800497   0.000000
    14  C    8.290515   5.903069   1.205546   0.000000
    15  H    8.874732   6.489717   1.998447   1.101277   0.000000
    16  H    8.874717   6.489701   1.998425   1.101251   1.907446
    17  H    5.313343   3.564423   3.284232   4.262728   4.389765
    18  F    5.625946   4.114404   4.048271   4.915281   4.868300
                   16         17         18
    16  H    0.000000
    17  H    5.250776   0.000000
    18  F    5.955830   0.923881   0.000000
 Stoichiometry    C7H8F2O
 Framework group  C1[X(C7H8F2O)]
 Deg. of freedom    48
 Full point group                 C1      NOp   1
 Largest Abelian subgroup         C1      NOp   1
 Largest concise Abelian subgroup C1      NOp   1
                         Standard orientation:                         
 ---------------------------------------------------------------------
 Center     Atomic      Atomic             Coordinates (Angstroms)
 Number     Number       Type             X           Y           Z
 ---------------------------------------------------------------------
      1          6           0       -0.641549   -0.353713   -0.007506
      2          6           0       -1.329800   -0.301811   -1.201092
      3          6           0       -2.710337   -0.213374   -1.200198
      4          6           0       -3.400914   -0.176981   -0.000736
      5          6           0       -2.704298   -0.229514    1.207357
      6          6           0       -1.307853   -0.318970    1.206453
      7          9           0        0.704396   -0.439934   -0.008378
      8          1           0       -0.787677   -0.330381   -2.142705
      9          1           0       -3.252337   -0.172501   -2.140152
     10          1           0       -4.484790   -0.107548   -0.000033
     11          1           0       -3.245898   -0.200971    2.148060
     12          1           0       -0.746616   -0.361003    2.135379
     13          8           0        3.542262   -0.621760   -0.005254
     14          6           0        4.745337   -0.698852   -0.002502
     15          1           0        5.355823    0.217704    0.004236
     16          1           0        5.233864   -1.685798   -0.008218
     17          1           0        1.226387    1.706927    0.005581
     18          9           0        1.124452    2.625148    0.011626
 ---------------------------------------------------------------------
 Rotational constants (GHZ):           2.0533074           0.4792257           0.4493842
 Standard basis: 6-311++G(d,p) (5D, 7F)
 There are   286 symmetry adapted cartesian basis functions of A   symmetry.
 There are   276 symmetry adapted basis functions of A   symmetry.
   276 basis functions,   432 primitive gaussians,   286 cartesian basis functions
    38 alpha electrons       38 beta electrons
       nuclear repulsion energy       470.2574707169 Hartrees.
 NAtoms=   18 NActive=   18 NUniq=   18 SFac= 1.00D+00 NAtFMM=   60 NAOKFM=F Big=F
 Integral buffers will be    131072 words long.
 Raffenetti 2 integral format.
 Two-electron integral symmetry is turned on.
 ------------------------------------------------------------------------------
 Polarizable Continuum Model (PCM)
 =================================
 Model                : PCM.
 Atomic radii         : UFF (Universal Force Field).
 Polarization charges : Total charges.
 Charge compensation  : None.
 Solution method      : On-the-fly selection.
 Cavity type          : Scaled VdW (van der Waals Surface) (Alpha=1.100).
 Cavity algorithm     : GePol (No added spheres)
                        Default sphere list used, NSphG=   18.
                        Lebedev-Laikov grids with approx.  5.0 points / Ang**2.
                        Smoothing algorithm: York/Karplus (Gamma=1.0000).
                        Polarization charges: spherical gaussians, with
                                              point-specific exponents (IZeta= 3).
                        Self-potential: point-specific (ISelfS= 7).
                        Self-field    : sphere-specific E.n sum rule (ISelfD= 2).
 1st derivatives      : Analytical E(r).r(x)/FMM algorithm (CHGder, D1EAlg=3).
                        Cavity 1st derivative terms included.
 Solvent              : Chloroform, Eps=   4.711300 Eps(inf)=   2.090627
 ------------------------------------------------------------------------------
 Spheres list:
 ISph  on   Nord     Re0    Alpha      Xe            Ye            Ze
    1   C      1    1.9255  1.100     -0.641549     -0.353713     -0.007506
    2   C      2    1.9255  1.100     -1.329800     -0.301811     -1.201092
    3   C      3    1.9255  1.100     -2.710337     -0.213374     -1.200198
    4   C      4    1.9255  1.100     -3.400914     -0.176981     -0.000736
    5   C      5    1.9255  1.100     -2.704298     -0.229514      1.207357
    6   C      6    1.9255  1.100     -1.307853     -0.318970      1.206453
    7   F      7    1.6820  1.100      0.704396     -0.439934     -0.008378
    8   H      8    1.4430  1.100     -0.787677     -0.330381     -2.142705
    9   H      9    1.4430  1.100     -3.252337     -0.172501     -2.140152
   10   H     10    1.4430  1.100     -4.484790     -0.107548     -0.000033
   11   H     11    1.4430  1.100     -3.245898     -0.200971      2.148060
   12   H     12    1.4430  1.100     -0.746616     -0.361003      2.135379
   13   O     13    1.7500  1.100      3.542262     -0.621760     -0.005254
   14   C     14    1.9255  1.100      4.745337     -0.698852     -0.002502
   15   H     15    1.4430  1.100      5.355823      0.217704      0.004236
   16   H     16    1.4430  1.100      5.233864     -1.685798     -0.008218
   17   H     17    1.4430  1.100      1.226387      1.706927      0.005581
   18   F     18    1.6820  1.100      1.124452      2.625148      0.011626
 ------------------------------------------------------------------------------
 One-electron integrals computed using PRISM.
 NBasis=   276 RedAO= T EigKep=  1.05D-06  NBF=   276
 NBsUse=   276 1.00D-06 EigRej= -1.00D+00 NBFU=   276
 Initial guess from the checkpoint file:  "model_H1.chk"
 B after Tr=     0.000000   -0.000000    0.000000
         Rot=    0.999997   -0.000714   -0.000350   -0.002503 Ang=  -0.30 deg.
 ExpMin= 3.60D-02 ExpMax= 1.14D+04 ExpMxC= 1.72D+03 IAcc=3 IRadAn=         5 AccDes= 0.00D+00
 Harris functional with IExCor= 1009 and IRadAn=       5 diagonalized for initial guess.
 HarFok:  IExCor= 1009 AccDes= 0.00D+00 IRadAn=         5 IDoV= 1 UseB2=F ITyADJ=14
 ICtDFT=  3500011 ScaDFX=  1.000000  1.000000  1.000000  1.000000
 FoFCou: FMM=F IPFlag=           0 FMFlag=      100000 FMFlg1=           0
         NFxFlg=           0 DoJE=T BraDBF=F KetDBF=T FulRan=T
         wScrn=  0.000000 ICntrl=       500 IOpCl=  0 I1Cent=   200000004 NGrid=           0
         NMat0=    1 NMatS0=      1 NMatT0=    0 NMatD0=    1 NMtDS0=    0 NMtDT0=    0
 Petite list used in FoFCou.
 Requested convergence on RMS density matrix=1.00D-08 within 128 cycles.
 Requested convergence on MAX density matrix=1.00D-06.
 Requested convergence on             energy=1.00D-06.
 No special actions if energy rises.
 Inv3:  Mode=1 IEnd=    10423488.
[...]
      7          9           0       -1.176967   -0.000000   -0.679522
      8          1           0       -0.938710   -0.000000    1.919931
      9          1           0        1.197715   -0.000000    3.152140
     10          1           0        3.336981   -0.000000    1.917389
     11          1           0        3.336608   -0.000000   -0.560755
     12          1           0        1.164897   -0.000000   -1.801910
     13          8           0       -3.849125   -0.000000   -2.228518
     14          6           0       -4.889234   -0.000000   -2.833134
     15          1           0       -5.365742    0.953888   -3.109252
     16          1           0       -5.365766   -0.953937   -3.109267
     17          1           0       -1.455407    1.823404   -0.840280
     18          9           0       -1.316171    2.735208   -0.759892
 ---------------------------------------------------------------------
                    Distance matrix (angstroms):
                    1          2          3          4          5
     1  C    0.000000
     2  C    1.377967   0.000000
     3  C    2.391071   1.383002   0.000000
     4  C    2.765590   2.399053   1.387185   0.000000
     5  C    2.399131   2.776373   2.409734   1.395332   0.000000
     6  C    1.388157   2.409815   2.788457   2.419986   1.399026
     7  F    1.359044   2.370340   3.632638   4.124630   3.636427
     8  H    2.137127   1.083929   2.141652   3.381812   3.860296
     9  H    3.372019   2.140610   1.082672   2.144372   3.391495
    10  H    3.848613   3.380299   2.144665   1.083027   2.151995
    11  H    3.383401   3.858963   3.390124   2.151638   1.082596
    12  H    2.145662   3.386532   3.871517   3.409026   2.168012
    13  O    4.447702   5.274704   6.628973   7.213278   6.627192
    14  C    5.650775   6.452750   7.815782   8.416346   7.812548
    15  H    6.274435   7.059478   8.414749   9.017666   8.411229
    16  H    6.274470   7.059512   8.414783   9.017699   8.411262
    17  H    2.479734   3.219259   4.339411   4.805518   4.342282
    18  F    3.129074   3.712696   4.669718   5.083872   4.672526
                    6          7          8          9         10
     6  C    0.000000
     7  F    2.364756   0.000000
     8  H    3.388864   2.610349   0.000000
     9  H    3.871124   4.507854   2.466303   0.000000
    10  H    3.401592   5.207655   4.275692   2.470035   0.000000
    11  H    2.154964   4.515137   4.942889   4.284910   2.478144
    12  H    1.083175   2.596937   4.275191   4.954159   4.307102
    13  O    5.257940   3.088660   5.067559   7.377132   8.296305
    14  C    6.433965   4.291733   6.180475   8.536654   9.499373
    15  H    7.040441   4.935517   6.767659   9.121069  10.095267
    16  H    7.040475   4.935554   6.767692   9.121102  10.095300
    17  H    3.213140   1.851533   3.348215   5.128672   5.822072
    18  F    3.708262   2.739927   3.847765   5.394903   6.025033
                   11         12         13         14         15
    11  H    0.000000
    12  H    2.501358   0.000000
    13  O    7.376734   5.032138   0.000000
    14  C    8.533944   6.141330   1.203074   0.000000
    15  H    9.117875   6.728171   1.996427   1.101455   0.000000
    16  H    9.117907   6.728205   1.996475   1.101511   1.907825
    17  H    5.134817   3.333996   3.313894   4.368917   4.603804
    18  F    5.400868   3.837039   4.006755   4.954440   5.009153
                   16         17         18
    16  H    0.000000
    17  H    5.305924   0.000000
    18  F    5.960585   0.925870   0.000000
 Stoichiometry    C7H8F2O
 Framework group  C1[X(C7H8F2O)]
 Deg. of freedom    48
 Full point group                 C1      NOp   1
 Largest Abelian subgroup         C1      NOp   1
 Largest concise Abelian subgroup C1      NOp   1
                         Standard orientation:                         
 ---------------------------------------------------------------------
 Center     Atomic      Atomic             Coordinates (Angstroms)
 Number     Number       Type             X           Y           Z
 ---------------------------------------------------------------------
      1          6           0       -0.680574   -0.317093   -0.012205
      2          6           0       -1.368731   -0.263961   -1.204853
      3          6           0       -2.750301   -0.201048   -1.203835
      4          6           0       -3.443289   -0.191433   -0.002187
      5          6           0       -2.746460   -0.245234    1.205491
      6          6           0       -1.348883   -0.308876    1.204461
      7          9           0        0.677063   -0.378916   -0.013205
      8          1           0       -0.827239   -0.271474   -2.143805
      9          1           0       -3.290988   -0.159302   -2.140902
     10          1           0       -4.525195   -0.142166   -0.001390
     11          1           0       -3.287287   -0.237730    2.143289
     12          1           0       -0.788542   -0.351315    2.130466
     13          8           0        3.762519   -0.519517   -0.010088
     14          6           0        4.964342   -0.574310   -0.007416
     15          1           0        5.557896    0.353363    0.010454
     16          1           0        5.471126   -1.552169   -0.024354
     17          1           0        1.081202    1.427671    0.019827
     18          9           0        0.962076    2.345692    0.036581
 ---------------------------------------------------------------------
 Rotational constants (GHZ):           2.3687965           0.4527402           0.4381919

 **********************************************************************

            Population analysis using the SCF Density.

 **********************************************************************

 Orbital symmetries:
       Occupied  (A) (A) (A) (A) (A) (A) (A) (A) (A) (A) (A) (A)
                 (A) (A) (A) (A) (A) (A) (A) (A) (A) (A) (A) (A)
                 (A) (A) (A) (A) (A) (A) (A) (A) (A) (A) (A) (A)
                 (A) (A)
       Virtual   (A) (A) (A) (A) (A) (A) (A) (A) (A) (A) (A) (A)
                 (A) (A) (A) (A) (A) (A) (A) (A) (A) (A) (A) (A)
                 (A) (A) (A) (A) (A) (A) (A) (A) (A) (A) (A) (A)
                 (A) (A) (A) (A) (A) (A) (A) (A) (A) (A) (A) (A)
                 (A) (A) (A) (A) (A) (A) (A) (A) (A) (A) (A) (A)
                 (A) (A) (A) (A) (A) (A) (A) (A) (A) (A) (A) (A)
                 (A) (A) (A) (A) (A) (A) (A) (A) (A) (A) (A) (A)
                 (A) (A) (A) (A) (A) (A) (A) (A) (A) (A) (A) (A)
                 (A) (A) (A) (A) (A) (A) (A) (A) (A) (A) (A) (A)
                 (A) (A) (A) (A) (A) (A) (A) (A) (A) (A) (A) (A)
                 (A) (A) (A) (A) (A) (A) (A) (A) (A) (A) (A) (A)
                 (A) (A) (A) (A) (A) (A) (A) (A) (A) (A) (A) (A)
                 (A) (A) (A) (A) (A) (A) (A) (A) (A) (A) (A) (A)
                 (A) (A) (A) (A) (A) (A) (A) (A) (A) (A) (A) (A)
                 (A) (A) (A) (A) (A) (A) (A) (A) (A) (A) (A) (A)
                 (A) (A) (A) (A) (A) (A) (A) (A) (A) (A) (A) (A)
                 (A) (A) (A) (A) (A) (A) (A) (A) (A) (A) (A) (A)
                 (A) (A) (A) (A) (A) (A) (A) (A) (A) (A) (A) (A)
                 (A) (A) (A) (A) (A) (A) (A) (A) (A) (A) (A) (A)
                 (A) (A) (A) (A) (A) (A) (A) (A) (A) (A)
 The electronic state is 1-A.
 Alpha  occ. eigenvalues --  -25.27777 -25.22217 -19.64484 -10.64174 -10.63868
 Alpha  occ. eigenvalues --  -10.56206 -10.56124 -10.55946 -10.55862 -10.55366
 Alpha  occ. eigenvalues --   -1.39461  -1.33262  -1.19226  -0.98238  -0.86536
 Alpha  occ. eigenvalues --   -0.86107  -0.72319  -0.72070  -0.71650  -0.64819
 Alpha  occ. eigenvalues --   -0.63951  -0.58979  -0.58335  -0.58299  -0.58101
 Alpha  occ. eigenvalues --   -0.53805  -0.52590  -0.50925  -0.50632  -0.50610
 Alpha  occ. eigenvalues --   -0.49757  -0.47701  -0.45035  -0.44101  -0.41911
 Alpha  occ. eigenvalues --   -0.34784  -0.32629  -0.31774
 Alpha virt. eigenvalues --   -0.00784  -0.00069   0.00314   0.00719   0.01186
 Alpha virt. eigenvalues --    0.01390   0.02009   0.02748   0.03372   0.03801
 Alpha virt. eigenvalues --    0.04940   0.06591   0.06792   0.07621   0.07894
 Alpha virt. eigenvalues --    0.09252   0.10542   0.11223   0.11485   0.11586
 Alpha virt. eigenvalues --    0.12808   0.13195   0.13377   0.13600   0.13640
 Alpha virt. eigenvalues --    0.14075   0.14154   0.14977   0.15419   0.15548
 Alpha virt. eigenvalues --    0.16266   0.16705   0.17334   0.18266   0.19980
 Alpha virt. eigenvalues --    0.20151   0.20778   0.21752   0.22185   0.22567
 Alpha virt. eigenvalues --    0.23427   0.24267   0.25729   0.25979   0.27682
 Alpha virt. eigenvalues --    0.29046   0.29894   0.30109   0.30679   0.31621
 Alpha virt. eigenvalues --    0.31826   0.32923   0.33654   0.34164   0.34377
 Alpha virt. eigenvalues --    0.37038   0.37857   0.38055   0.40025   0.40745
 Alpha virt. eigenvalues --    0.41965   0.42266   0.43439   0.46657   0.49559
 Alpha virt. eigenvalues --    0.50447   0.51782   0.52578   0.55043   0.55584
 Alpha virt. eigenvalues --    0.57033   0.57842   0.58316   0.59210   0.59403
 Alpha virt. eigenvalues --    0.59671   0.60197   0.60841   0.63322   0.63360
 Alpha virt. eigenvalues --    0.64431   0.67165   0.68007   0.71504   0.72602
 Alpha virt. eigenvalues --    0.73236   0.76496   0.76621   0.79916   0.81430
 Alpha virt. eigenvalues --    0.83180   0.85271   0.87895   0.88899   0.90327
 Alpha virt. eigenvalues --    0.91297   0.93609   0.93788   0.94247   0.99511
 Alpha virt. eigenvalues --    1.03362   1.04422   1.05103   1.05542   1.06450
 Alpha virt. eigenvalues --    1.06746   1.12100   1.15234   1.15377   1.18055
 Alpha virt. eigenvalues --    1.18112   1.21870   1.23326   1.32399   1.33819
 Alpha virt. eigenvalues --    1.34061   1.37393   1.40103   1.42364   1.44544
 Alpha virt. eigenvalues --    1.46319   1.47842   1.48708   1.49290   1.52815
 Alpha virt. eigenvalues --    1.55076   1.56383   1.56889   1.59563   1.60023
 Alpha virt. eigenvalues --    1.60816   1.62290   1.64079   1.68116   1.68617
 Alpha virt. eigenvalues --    1.68968   1.70479   1.74446   1.76900   1.77188
 Alpha virt. eigenvalues --    1.77847   1.79840   1.86121   1.86884   1.89996
 Alpha virt. eigenvalues --    1.91545   1.94124   1.94572   1.96103   1.96740
 Alpha virt. eigenvalues --    1.98859   1.99294   2.01488   2.04480   2.06640
 Alpha virt. eigenvalues --    2.10071   2.10463   2.13579   2.17162   2.29885
 Alpha virt. eigenvalues --    2.30315   2.35209   2.38802   2.43798   2.44091
 Alpha virt. eigenvalues --    2.47091   2.48556   2.50662   2.52702   2.52766
 Alpha virt. eigenvalues --    2.58642   2.65198   2.66389   2.69578   2.71528
 Alpha virt. eigenvalues --    2.72721   2.72773   2.74086   2.75760   2.76507
 Alpha virt. eigenvalues --    2.79385   2.83939   2.85324   2.85476   2.88232
 Alpha virt. eigenvalues --    2.93942   2.94356   2.94498   2.98104   2.98683
 Alpha virt. eigenvalues --    3.13940   3.18522   3.25163   3.39019   3.39303
 Alpha virt. eigenvalues --    3.42432   3.48602   3.52898   3.55357   3.56618
 Alpha virt. eigenvalues --    3.66618   3.74322   3.79143   3.85947   3.89882
 Alpha virt. eigenvalues --    3.90060   3.93793   4.00956   4.02765   4.05098
 Alpha virt. eigenvalues --    4.08913   4.13442   4.16033   4.16133   4.19179
 Alpha virt. eigenvalues --    4.20126   4.85675   4.89354   4.94446   5.10307
 Alpha virt. eigenvalues --    5.21280   5.77969   6.42883   6.48625   6.52730
 Alpha virt. eigenvalues --    6.58386   6.83314   6.92024  23.67298  23.99606
 Alpha virt. eigenvalues --   24.01283  24.05057  24.15574  24.16955  24.27696
 Alpha virt. eigenvalues --   50.04587  66.91395  66.94979
          Condensed to atoms (all electrons):
               1          2          3          4          5          6
     1  C   13.525281  -5.067424   2.353341  -2.600263   2.312010  -4.423441
     2  C   -5.067424  13.465715  -2.681489   2.212019  -2.620200   0.512438
     3  C    2.353341  -2.681489   8.443760  -1.711908   2.127428  -2.640356
     4  C   -2.600263   2.212019  -1.711908   7.555296  -1.641533   2.099321
     5  C    2.312010  -2.620200   2.127428  -1.641533   8.209123  -2.491409
     6  C   -4.423441   0.512438  -2.640356   2.099321  -2.491409  12.775468
     7  F    0.702384  -0.499115   0.141926  -0.084630   0.138405  -0.477062
     8  H   -0.236682   0.631788  -0.097042   0.057264  -0.046584   0.011039
     9  H    0.039458  -0.043835   0.350596  -0.031404  -0.004423   0.018813
    10  H    0.013886  -0.017612   0.006904   0.339346   0.007092  -0.016128
    11  H    0.030957   0.021290  -0.006626  -0.026961   0.348374  -0.038906
    12  H   -0.217066   0.012475  -0.048234   0.053869  -0.091215   0.610767
    13  O    0.012466  -0.000709  -0.001147   0.000086  -0.001021  -0.000450
    14  C    0.001810  -0.003701   0.001219  -0.000393   0.001182  -0.003245
    15  H    0.000086   0.000032  -0.000041   0.000002  -0.000041   0.000005
    16  H   -0.000042   0.000080  -0.000031   0.000020  -0.000031   0.000071
    17  H   -0.081526   0.037317  -0.003717   0.006720  -0.003698   0.036440
    18  F    0.128683  -0.029621  -0.025360   0.010517  -0.024490  -0.028486
               7          8          9         10         11         12
     1  C    0.702384  -0.236682   0.039458   0.013886   0.030957  -0.217066
     2  C   -0.499115   0.631788  -0.043835  -0.017612   0.021290   0.012475
     3  C    0.141926  -0.097042   0.350596   0.006904  -0.006626  -0.048234
     4  C   -0.084630   0.057264  -0.031404   0.339346  -0.026961   0.053869
     5  C    0.138405  -0.046584  -0.004423   0.007092   0.348374  -0.091215
     6  C   -0.477062   0.011039   0.018813  -0.016128  -0.038906   0.610767
     7  F    9.230504  -0.028768   0.001812  -0.000850   0.001591  -0.028442
     8  H   -0.028768   0.466808  -0.003354   0.000844   0.000768   0.002434
     9  H    0.001812  -0.003354   0.439177   0.001369  -0.000665   0.000682
    10  H   -0.000850   0.000844   0.001369   0.444128   0.001569   0.000781
    11  H    0.001591   0.000768  -0.000665   0.001569   0.438546  -0.002434
    12  H   -0.028442   0.002434   0.000682   0.000781  -0.002434   0.463743
    13  O    0.005897   0.001501  -0.000001  -0.000001  -0.000001   0.001532
    14  C    0.001925  -0.000610   0.000015  -0.000004   0.000014  -0.000607
    15  H   -0.000588  -0.000029   0.000001   0.000000   0.000001  -0.000032
    16  H   -0.000158   0.000018  -0.000001   0.000000  -0.000001   0.000017
    17  H    0.044055   0.000019  -0.000029  -0.000012  -0.000025  -0.000011
    18  F   -0.020386  -0.000387  -0.000839   0.000166  -0.000849  -0.000343
              13         14         15         16         17         18
     1  C    0.012466   0.001810   0.000086  -0.000042  -0.081526   0.128683
     2  C   -0.000709  -0.003701   0.000032   0.000080   0.037317  -0.029621
     3  C   -0.001147   0.001219  -0.000041  -0.000031  -0.003717  -0.025360
     4  C    0.000086  -0.000393   0.000002   0.000020   0.006720   0.010517
     5  C   -0.001021   0.001182  -0.000041  -0.000031  -0.003698  -0.024490
     6  C   -0.000450  -0.003245   0.000005   0.000071   0.036440  -0.028486
     7  F    0.005897   0.001925  -0.000588  -0.000158   0.044055  -0.020386
     8  H    0.001501  -0.000610  -0.000029   0.000018   0.000019  -0.000387
     9  H   -0.000001   0.000015   0.000001  -0.000001  -0.000029  -0.000839
    10  H   -0.000001  -0.000004   0.000000   0.000000  -0.000012   0.000166
    11  H   -0.000001   0.000014   0.000001  -0.000001  -0.000025  -0.000849
    12  H    0.001532  -0.000607  -0.000032   0.000017  -0.000011  -0.000343
    13  O    8.158122   0.277166  -0.085972  -0.085442   0.002697  -0.001261
    14  C    0.277166   4.901736   0.396247   0.397330   0.000919  -0.000735
    15  H   -0.085972   0.396247   0.663281  -0.106961  -0.000098   0.000230
    16  H   -0.085442   0.397330  -0.106961   0.665574  -0.000119  -0.000061
    17  H    0.002697   0.000919  -0.000098  -0.000119   0.387475   0.316568
    18  F   -0.001261  -0.000735   0.000230  -0.000061   0.316568   8.948826
 Mulliken charges:
               1
     1  C   -0.493919
     2  C    0.070552
     3  C   -0.209222
     4  C   -0.237368
     5  C   -0.218971
     6  C    0.055123
     7  F   -0.128501
     8  H    0.240975
     9  H    0.232627
    10  H    0.218523
    11  H    0.233359
    12  H    0.242084
    13  O   -0.283461
    14  C    0.029732
    15  H    0.133877
    16  H    0.129736
    17  H    0.257024
    18  F   -0.272171
 Sum of Mulliken charges =  -0.00000
 Mulliken charges with hydrogens summed into heavy atoms:
               1
     1  C   -0.493919
     2  C    0.311527
     3  C    0.023405
     4  C   -0.018844
     5  C    0.014388
     6  C    0.297207
     7  F   -0.128501
    13  O   -0.283461
    14  C    0.293346
    18  F   -0.015148
 Electronic spatial extent (au):  <R**2>=           2539.3018
 Charge=             -0.0000 electrons
 Dipole moment (field-independent basis, Debye):
    X=              0.6901    Y=             -2.4230    Z=             -0.0487  Tot=              2.5198
 Quadrupole moment (field-independent basis, Debye-Ang):
   XX=            -24.6070   YY=            -68.6722   ZZ=            -50.6888
   XY=             -3.7385   XZ=              0.0798   YZ=             -0.3187
 Traceless Quadrupole moment (field-independent basis, Debye-Ang):
   XX=             23.3823   YY=            -20.6829   ZZ=             -2.6995
   XY=             -3.7385   XZ=              0.0798   YZ=             -0.3187
 Octapole moment (field-independent basis, Debye-Ang**2):
  XXX=            163.8690  YYY=             -7.1630  ZZZ=             -0.0649  XYY=             18.5648
  XXY=            -13.3097  XXZ=             -0.3299  XZZ=             -1.0516  YZZ=              1.9565
  YYZ=             -0.2896  XYZ=              0.3142
 Hexadecapole moment (field-independent basis, Debye-Ang**3):
 XXXX=          -1529.7741 YYYY=           -342.5765 ZZZZ=           -268.6267 XXXY=            -97.7463
 XXXZ=             -0.2937 YYYX=            -30.9882 YYYZ=              0.1730 ZZZX=              0.6102
 ZZZY=             -0.6505 XXYY=           -501.8309 XXZZ=           -462.1453 YYZZ=           -107.5647
 XXYZ=             -0.6323 YYXZ=             -0.3733 ZZXY=              2.8170
 N-N= 4.718548498791D+02 E-N=-2.228715077401D+03  KE= 5.445967562619D+02
 1\1\GINC-R820\POpt\RM062X\6-311++G(d,p)\C7H8F2O1\ZJXU\29-Mar-2024\1\\#
  m062x 6-311++G(d,p) opt=z-matrix scrf=(solvent=chloroform)\\test\\0,1
 \C\C,1,d1\C,2,d2,1,120.\C,3,d3,2,120.,1,0.,0\C,4,d4,3,120.,2,0.,0\C,5,
 d5,4,120.,3,0.,0\F,1,d6,2,120.,3,180.,0\H,2,d7,3,120.,4,180.,0\H,3,d8,
 4,120.,5,180.,0\H,4,d9,5,120.,6,180.,0\H,5,d10,6,120.,1,180.,0\H,6,d11
 ,1,120.,2,180.,0\O,7,d12,1,179.9,3,180.,0\C,13,d13,1,179.9,2,180.,0\H,
 14,d14,1,120.,2,90.,0\H,14,d15,1,120.,2,-90.,0\H,7,d16,1,100.,2,90.,0\
 F,17,d17,7,160.,1,0.,0\\d1=1.37796698\d2=1.38300206\d3=1.38718516\d4=1
 .39533226\d5=1.39902613\d6=1.35904392\d7=1.08392874\d8=1.08267238\d9=1
 .08302707\d10=1.08259619\d11=1.08317464\d12=3.08866001\d13=1.20307401\
 d14=1.10145493\d15=1.10151123\d16=1.85153299\d17=0.92587027\\Version=E
 S64L-G16RevB.01\State=1-A\HF=-546.3870424\RMSD=9.291e-09\RMSF=4.089e-0
 3\Dipole=-0.2733588,-0.940136,-0.1557553\Quadrupole=12.5826351,-15.566
 0854,2.9834503,1.1123787,8.5286753,0.6278451\PG=C01 [X(C7H8F2O1)]\\@


 Where a calculator on the ENIAC is equipped with 18,000
 vacuum tubes and weighs 30 tons, computers inthe future
 may  have only 1,000 vacuum tubes and weigh only 1 1/2 tons.
              ---Popular Mechanics, March 1949
 Job cpu time:       0 days  2 hours  2 minutes  7.0 seconds.
 Elapsed time:       0 days  1 hours  1 minutes  5.8 seconds.
 File lengths (MBytes):  RWF=    159 Int=      0 D2E=      0 Chk=     11 Scr=      1
 Normal termination of Gaussian 16 at Fri Mar 29 19:20:15 2024.
