 Entering Gaussian System, Link 0=g16
 Input=model_H3.gjf
 Output=model_H3.log
 Initial command:
 /home/lywu/software/g16/l1.exe "/home/lywu/software/g16/scr/Gau-5965.inp" -scrdir="/home/lywu/software/g16/scr/"
 Entering Link 1 = /home/lywu/software/g16/l1.exe PID=      5978.
  
 Copyright (c) 1988-2017, Gaussian, Inc.  All Rights Reserved.
  
 This is part of the Gaussian(R) 16 program.  It is based on
 the Gaussian(R) 09 system (copyright 2009, Gaussian, Inc.),
 the Gaussian(R) 03 system (copyright 2003, Gaussian, Inc.),
 the Gaussian(R) 98 system (copyright 1998, Gaussian, Inc.),
 the Gaussian(R) 94 system (copyright 1995, Gaussian, Inc.),
 the Gaussian 92(TM) system (copyright 1992, Gaussian, Inc.),
 the Gaussian 90(TM) system (copyright 1990, Gaussian, Inc.),
 the Gaussian 88(TM) system (copyright 1988, Gaussian, Inc.),
 the Gaussian 86(TM) system (copyright 1986, Carnegie Mellon
 University), and the Gaussian 82(TM) system (copyright 1983,
 Carnegie Mellon University). Gaussian is a federally registered
 trademark of Gaussian, Inc.
  
 This software contains proprietary and confidential information,
 including trade secrets, belonging to Gaussian, Inc.
  
 This software is provided under written license and may be
 used, copied, transmitted, or stored only in accord with that
 written license.
  
 The following legend is applicable only to US Government
 contracts under FAR:
  
                    RESTRICTED RIGHTS LEGEND
  
 Use, reproduction and disclosure by the US Government is
 subject to restrictions as set forth in subparagraphs (a)
 and (c) of the Commercial Computer Software - Restricted
 Rights clause in FAR 52.227-19.
  
 Gaussian, Inc.
 340 Quinnipiac St., Bldg. 40, Wallingford CT 06492
  
  
 ---------------------------------------------------------------
 Warning -- This program may not be used in any manner that
 competes with the business of Gaussian, Inc. or will provide
 assistance to any competitor of Gaussian, Inc.  The licensee
 of this program is prohibited from giving any competitor of
 Gaussian, Inc. access to this program.  By using this program,
 the user acknowledges that Gaussian, Inc. is engaged in the
 business of creating and licensing software in the field of
 computational chemistry and represents and warrants to the
 licensee that it is not a competitor of Gaussian, Inc. and that
 it will not use this program in any manner prohibited above.
 ---------------------------------------------------------------
  

 Cite this work as:
 Gaussian 16, Revision B.01,
 M. J. Frisch, G. W. Trucks, H. B. Schlegel, G. E. Scuseria, 
 M. A. Robb, J. R. Cheeseman, G. Scalmani, V. Barone, 
 G. A. Petersson, H. Nakatsuji, X. Li, M. Caricato, A. V. Marenich, 
 J. Bloino, B. G. Janesko, R. Gomperts, B. Mennucci, H. P. Hratchian, 
 J. V. Ortiz, A. F. Izmaylov, J. L. Sonnenberg, D. Williams-Young, 
 F. Ding, F. Lipparini, F. Egidi, J. Goings, B. Peng, A. Petrone, 
 T. Henderson, D. Ranasinghe, V. G. Zakrzewski, J. Gao, N. Rega, 
 G. Zheng, W. Liang, M. Hada, M. Ehara, K. Toyota, R. Fukuda, 
 J. Hasegawa, M. Ishida, T. Nakajima, Y. Honda, O. Kitao, H. Nakai, 
 T. Vreven, K. Throssell, J. A. Montgomery, Jr., J. E. Peralta, 
 F. Ogliaro, M. J. Bearpark, J. J. Heyd, E. N. Brothers, K. N. Kudin, 
 V. N. Staroverov, T. A. Keith, R. Kobayashi, J. Normand, 
 K. Raghavachari, A. P. Rendell, J. C. Burant, S. S. Iyengar, 
 J. Tomasi, M. Cossi, J. M. Millam, M. Klene, C. Adamo, R. Cammi, 
 J. W. Ochterski, R. L. Martin, K. Morokuma, O. Farkas, 
 J. B. Foresman, and D. J. Fox, Gaussian, Inc., Wallingford CT, 2016.
 
 ******************************************
 Gaussian 16:  ES64L-G16RevB.01 20-Dec-2017
                 6-Jan-2025 
 ******************************************
 %mem=2GB
 %nproc=2
 Will use up to    2 processors via shared memory.
 ----------------------------------------------------------------
 # m062x 6-311++G(d,p) opt=z-matrix scrf=(solvent=dichloroethane)
 ----------------------------------------------------------------
 1/10=7,18=40,26=3,38=1/1,3;
 2/12=2,17=6,18=5,29=3,40=1/2;
 3/5=4,6=6,7=1111,11=2,25=1,30=1,70=2201,71=1,72=10,74=-55/1,2,3;
 4//1;
 5/5=2,38=5,53=10/2;
 6/7=2,8=2,9=2,10=2,28=1/1;
 7/29=1/1,2,3,16;
 1/10=7,18=40,26=3/3(2);
 2/29=3/2;
 99//99;
 2/29=3/2;
 3/5=4,6=6,7=1111,11=2,25=1,30=1,70=2205,71=1,72=10,74=-55/1,2,3;
 4/5=5,16=3,69=1/1;
 5/5=2,38=5,53=10/2;
 7//1,2,3,16;
 1/18=40,26=3/3(-5);
 2/29=3/2;
 6/7=2,8=2,9=2,10=2,19=2,28=1/1;
 99/9=1/99;
 ----
 test
 ----
 Symbolic Z-matrix:
 Charge =  0 Multiplicity = 1
 C1
 C2                   1    d1
 C3                   2    d2       1     120. 
 C4                   3    d3       2     120.     1     0.       0
 C5                   4    d4       3     120.     2     0.       0
 C6                   5    d5       4     120.     3     0.       0
 F7                   1    d6       2     120.     3     180.     0
 H8                   2    d7       3     120.     4     180.     0
 H9                   3    d8       4     120.     5     180.     0
 H10                  4    d9       5     120.     6     180.     0
 H11                  5    d10      6     120.     1     180.     0
 H12                  6    d11      1     120.     2     180.     0
 O13                  7    d12      1     179.9    3     180.     0
 C14                  13   d13      1     179.9    2     180.     0
 H15                  14   d14      1     120.     2     90.      0
 H16                  14   d15      1     120.     2    -90.      0
 H17                  7    d16      1     100.     2     90.      0
 F18                  17   d17      7     160.     1     0.       0
 H19                  7    d18      1     100.     2    -30.      0
 F20                  19   d19      7     160.     1     0.       0
 H21                  7    d20      1     100.     2    -150.     0
 F22                  21   d21      7     160.     1     0.       0
       Variables:
  d1                    1.3                      
  d2                    1.3                      
  d3                    1.3                      
  d4                    1.3                      
  d5                    1.3                      
  d6                    1.4                      
  d7                    1.                       
  d8                    1.                       
  d9                    1.                       
  d10                   1.                       
  d11                   1.                       
  d12                   2.8                      
  d13                   1.2                      
  d14                   1.                       
  d15                   1.                       
  d16                   2.3                      
  d17                   0.9                      
  d18                   2.3                      
  d19                   0.9                      
  d20                   2.3                      
  d21                   0.9                      
 

 GradGradGradGradGradGradGradGradGradGradGradGradGradGradGradGradGradGrad
 Berny optimization.
 Initialization pass.
                       ----------------------------
                       !    Initial Parameters    !
                       ! (Angstroms and Degrees)  !
 ----------------------                            ----------------------
 !      Name          Value   Derivative information (Atomic Units)     !
 ------------------------------------------------------------------------
 !       d1          1.3      estimate D2E/DX2                          !
 !       d2          1.3      estimate D2E/DX2                          !
 !       d3          1.3      estimate D2E/DX2                          !
 !       d4          1.3      estimate D2E/DX2                          !
 !       d5          1.3      estimate D2E/DX2                          !
 !       d6          1.4      estimate D2E/DX2                          !
 !       d7          1.0      estimate D2E/DX2                          !
 !       d8          1.0      estimate D2E/DX2                          !
 !       d9          1.0      estimate D2E/DX2                          !
 !       d10         1.0      estimate D2E/DX2                          !
 !       d11         1.0      estimate D2E/DX2                          !
 !       d12         2.8      estimate D2E/DX2                          !
 !       d13         1.2      estimate D2E/DX2                          !
 !       d14         1.0      estimate D2E/DX2                          !
 !       d15         1.0      estimate D2E/DX2                          !
 !       d16         2.3      estimate D2E/DX2                          !
 !       d17         0.9      estimate D2E/DX2                          !
 !       d18         2.3      estimate D2E/DX2                          !
 !       d19         0.9      estimate D2E/DX2                          !
 !       d20         2.3      estimate D2E/DX2                          !
 !       d21         0.9      estimate D2E/DX2                          !
 ------------------------------------------------------------------------
 Trust Radius=3.00D-01 FncErr=1.00D-07 GrdErr=1.00D-06 EigMax=2.50D+02 EigMin=1.00D-04
 Number of steps in this run=     31 maximum allowed number of steps=    100.
 GradGradGradGradGradGradGradGradGradGradGradGradGradGradGradGradGradGrad

 ---------------------------------------------------------------------------------------------------
                            Z-MATRIX (ANGSTROMS AND DEGREES)
   CD    Cent   Atom    N1       Length/X        N2       Alpha/Y        N3        Beta/Z          J
 ---------------------------------------------------------------------------------------------------
      1      1  C 
      2      2  C        1   1.300000(     1)
      3      3  C        2   1.300000(     2)      1  120.000(    22)
      4      4  C        3   1.300000(     3)      2  120.000(    23)      1    0.000(    42)      0
      5      5  C        4   1.300000(     4)      3  120.000(    24)      2    0.000(    43)      0
      6      6  C        5   1.300000(     5)      4  120.000(    25)      3    0.000(    44)      0
      7      7  F        1   1.400000(     6)      2  120.000(    26)      3  180.000(    45)      0
      8      8  H        2   1.000000(     7)      3  120.000(    27)      4  180.000(    46)      0
      9      9  H        3   1.000000(     8)      4  120.000(    28)      5  180.000(    47)      0
     10     10  H        4   1.000000(     9)      5  120.000(    29)      6  180.000(    48)      0
     11     11  H        5   1.000000(    10)      6  120.000(    30)      1  180.000(    49)      0
     12     12  H        6   1.000000(    11)      1  120.000(    31)      2  180.000(    50)      0
     13     13  O        7   2.800000(    12)      1  179.900(    32)      3  180.000(    51)      0
     14     14  C       13   1.200000(    13)      1  179.900(    33)      2  180.000(    52)      0
     15     15  H       14   1.000000(    14)      1  120.000(    34)      2   90.000(    53)      0
     16     16  H       14   1.000000(    15)      1  120.000(    35)      2  -90.000(    54)      0
     17     17  H        7   2.300000(    16)      1  100.000(    36)      2   90.000(    55)      0
     18     18  F       17   0.900000(    17)      7  160.000(    37)      1    0.000(    56)      0
     19     19  H        7   2.300000(    18)      1  100.000(    38)      2  -30.000(    57)      0
     20     20  F       19   0.900000(    19)      7  160.000(    39)      1    0.000(    58)      0
     21     21  H        7   2.300000(    20)      1  100.000(    40)      2 -150.000(    59)      0
     22     22  F       21   0.900000(    21)      7  160.000(    41)      1    0.000(    60)      0
 ---------------------------------------------------------------------------------------------------
                         Z-Matrix orientation:                         
 ---------------------------------------------------------------------
 Center     Atomic      Atomic             Coordinates (Angstroms)
 Number     Number       Type             X           Y           Z
 ---------------------------------------------------------------------
      1          6           0        0.000000    0.000000    0.000000
      2          6           0        0.000000    0.000000    1.300000
      3          6           0        1.125833    0.000000    1.950000
      4          6           0        2.251666    0.000000    1.300000
      5          6           0        2.251666    0.000000   -0.000000
      6          6           0        1.125833    0.000000   -0.650000
      7          9           0       -1.212436   -0.000000   -0.700000
      8          1           0       -0.866025   -0.000000    1.800000
      9          1           0        1.125833   -0.000000    2.950000
     10          1           0        3.117691   -0.000000    1.800000
     11          1           0        3.117691   -0.000000   -0.500000
     12          1           0        1.125833   -0.000000   -1.650000
     13          8           0       -3.634860   -0.000000   -2.104230
     14          6           0       -4.672340   -0.000000   -2.707251
     15          1           0       -5.104965    0.866025   -2.957922
     16          1           0       -5.104965   -0.866025   -2.957922
     17          1           0       -1.558318    2.265058   -0.899695
     18          9           0       -1.422973    3.151385   -0.821554
     19          1           0       -2.539117   -1.132529    0.799098
     20          9           0       -2.787562   -1.575692    1.541985
     21          1           0       -0.577519   -1.132529   -2.598489
     22          9           0       -0.058383   -1.575692   -3.185092
 ---------------------------------------------------------------------
                    Distance matrix (angstroms):
                    1          2          3          4          5
     1  C    0.000000
     2  C    1.300000   0.000000
     3  C    2.251666   1.300000   0.000000
     4  C    2.600000   2.251666   1.300000   0.000000
     5  C    2.251666   2.600000   2.251666   1.300000   0.000000
     6  C    1.300000   2.251666   2.600000   2.251666   1.300000
     7  F    1.400000   2.338803   3.534119   4.000000   3.534119
     8  H    1.997498   1.000000   1.997498   3.157531   3.600000
     9  H    3.157531   1.997498   1.000000   1.997498   3.157531
    10  H    3.600000   3.157531   1.997498   1.000000   1.997498
    11  H    3.157531   3.600000   3.157531   1.997498   1.000000
    12  H    1.997498   3.157531   3.600000   3.157531   1.997498
    13  O    4.199999   4.980059   6.253077   6.799997   6.251317
    14  C    5.399997   6.155390   7.436988   7.999995   7.434452
    15  H    5.963218   6.703772   7.978755   8.543999   7.976172
    16  H    5.963218   6.703772   7.978755   8.543999   7.976172
    17  H    2.892800   3.521009   4.522822   4.948245   4.522822
    18  F    3.554016   4.056731   4.910107   5.285375   4.910107
    19  H    2.892800   2.825003   4.004879   4.948245   4.987262
    20  F    3.554016   3.211210   4.238390   5.285375   5.500395
    21  H    2.892800   4.100532   4.987262   4.948245   4.004879
    22  F    3.554016   4.754184   5.500395   5.285375   4.238390
                    6          7          8          9         10
     6  C    0.000000
     7  F    2.338803   0.000000
     8  H    3.157531   2.523886   0.000000
     9  H    3.600000   4.334743   2.300000   0.000000
    10  H    3.157531   5.000000   3.983717   2.300000   0.000000
    11  H    1.997498   4.334743   4.600000   3.983717   2.300000
    12  H    1.000000   2.523886   3.983717   4.600000   3.983717
    13  O    4.977849   2.800000   4.786382   6.943301   7.799997
    14  C    6.152324   3.999999   5.899436   8.100821   8.999995
    15  H    6.700697   4.582575   6.430896   8.629970   9.539387
    16  H    6.700697   4.582575   6.430896   8.629970   9.539387
    17  H    3.521009   2.300000   3.591394   5.211076   5.855246
    18  F    4.056731   3.160748   4.136902   5.536448   6.117303
    19  H    4.100532   2.300000   2.254698   4.397824   5.855246
    20  F    4.754184   3.160748   2.498336   4.447469   6.117303
    21  H    2.825003   2.300000   4.551105   5.913523   5.855246
    22  F    3.211210   3.160748   5.290202   6.443953   6.117303
                   11         12         13         14         15
    11  H    0.000000
    12  H    2.300000   0.000000
    13  O    6.940497   4.782313   0.000000
    14  C    8.096700   5.893776   1.200000   0.000000
    15  H    8.625744   6.425224   1.907878   1.000000   0.000000
    16  H    8.625744   6.425224   1.907878   1.000000   1.732051
    17  H    5.211076   3.591394   3.300517   4.253807   4.332700
    18  F    5.536448   4.136902   4.058193   4.903618   4.831563
    19  H    5.913523   4.551105   3.303421   4.257669   4.969204
    20  F    6.443953   5.290202   4.061478   4.908278   5.619742
    21  H    4.397824   2.254698   3.297612   4.249942   4.961973
    22  F    4.447469   2.498336   4.054905   4.898953   5.610845
                   16         17         18         19         20
    16  H    0.000000
    17  H    5.159329   0.000000
    18  F    5.853266   0.900000   0.000000
    19  H    4.557389   3.923195   4.714256   0.000000
    20  F    5.111080   4.714256   5.458359   0.900000   0.000000
    21  H    4.549503   3.923195   4.714256   3.923195   4.714256
    22  F    5.101296   4.714256   5.458359   4.714256   5.458359
                   21         22
    21  H    0.000000
    22  F    0.900000   0.000000
 Stoichiometry    C7H10F4O
 Framework group  C1[X(C7H10F4O)]
 Deg. of freedom    60
 Full point group                 C1      NOp   1
 Largest Abelian subgroup         C1      NOp   1
 Largest concise Abelian subgroup C1      NOp   1
                         Standard orientation:                         
 ---------------------------------------------------------------------
 Center     Atomic      Atomic             Coordinates (Angstroms)
 Number     Number       Type             X           Y           Z
 ---------------------------------------------------------------------
      1          6           0       -0.880854   -0.000042    0.000000
      2          6           0       -1.532341    1.124931    0.000000
      3          6           0       -2.832340    1.123213    0.000000
      4          6           0       -3.480852   -0.003478    0.000000
      5          6           0       -2.829365   -1.128451    0.000000
      6          6           0       -1.529366   -1.126733    0.000000
      7          9           0        0.519144    0.001807    0.000000
      8          1           0       -1.033486    1.991616    0.000000
      9          1           0       -3.333484    1.988577    0.000000
     10          1           0       -4.480851   -0.004799    0.000000
     11          1           0       -3.328221   -1.995136    0.000000
     12          1           0       -1.028223   -1.992097    0.000000
     13          8           0        3.319144    0.000620    0.000000
     14          6           0        4.519143   -0.001285    0.000000
     15          1           0        5.019143   -0.001400    0.866025
     16          1           0        5.019143   -0.001400   -0.866025
     17          1           0        0.918535    0.002335    2.265058
     18          9           0        0.762252    0.002129    3.151385
     19          1           0        0.915943    1.963931   -1.132529
     20          9           0        0.758646    2.731306   -1.575692
     21          1           0        0.921127   -1.959261   -1.132529
     22          9           0        0.765858   -2.727048   -1.575692
 ---------------------------------------------------------------------
 Rotational constants (GHZ):           0.7658531           0.4033036           0.3804359
 Standard basis: 6-311++G(d,p) (5D, 7F)
 There are   346 symmetry adapted cartesian basis functions of A   symmetry.
 There are   334 symmetry adapted basis functions of A   symmetry.
   334 basis functions,   522 primitive gaussians,   346 cartesian basis functions
    48 alpha electrons       48 beta electrons
       nuclear repulsion energy       698.7123834841 Hartrees.
 NAtoms=   22 NActive=   22 NUniq=   22 SFac= 1.00D+00 NAtFMM=   60 NAOKFM=F Big=F
 Integral buffers will be    131072 words long.
 Raffenetti 2 integral format.
 Two-electron integral symmetry is turned on.
 ------------------------------------------------------------------------------
 Polarizable Continuum Model (PCM)
 =================================
 Model                : PCM.
 Atomic radii         : UFF (Universal Force Field).
 Polarization charges : Total charges.
 Charge compensation  : None.
 Solution method      : On-the-fly selection.
 Cavity type          : Scaled VdW (van der Waals Surface) (Alpha=1.100).
 Cavity algorithm     : GePol (No added spheres)
                        Default sphere list used, NSphG=   22.
                        Lebedev-Laikov grids with approx.  5.0 points / Ang**2.
                        Smoothing algorithm: York/Karplus (Gamma=1.0000).
                        Polarization charges: spherical gaussians, with
                                              point-specific exponents (IZeta= 3).
                        Self-potential: point-specific (ISelfS= 7).
                        Self-field    : sphere-specific E.n sum rule (ISelfD= 2).
 1st derivatives      : Analytical E(r).r(x)/FMM algorithm (CHGder, D1EAlg=3).
                        Cavity 1st derivative terms included.
 Solvent              : DiChloroEthane, Eps=  10.125000 Eps(inf)=   2.087447
 ------------------------------------------------------------------------------
 One-electron integrals computed using PRISM.
 NBasis=   334 RedAO= T EigKep=  2.92D-06  NBF=   334
 NBsUse=   333 1.00D-06 EigRej=  4.35D-07 NBFU=   333
 ExpMin= 3.60D-02 ExpMax= 1.14D+04 ExpMxC= 1.72D+03 IAcc=3 IRadAn=         5 AccDes= 0.00D+00
 Harris functional with IExCor= 1009 and IRadAn=       5 diagonalized for initial guess.
 HarFok:  IExCor= 1009 AccDes= 0.00D+00 IRadAn=         5 IDoV= 1 UseB2=F ITyADJ=14
 ICtDFT=  3500011 ScaDFX=  1.000000  1.000000  1.000000  1.000000
 FoFCou: FMM=F IPFlag=           0 FMFlag=      100000 FMFlg1=           0
         NFxFlg=           0 DoJE=T BraDBF=F KetDBF=T FulRan=T
         wScrn=  0.000000 ICntrl=       500 IOpCl=  0 I1Cent=   200000004 NGrid=           0
         NMat0=    1 NMatS0=      1 NMatT0=    0 NMatD0=    1 NMtDS0=    0 NMtDT0=    0
 Petite list used in FoFCou.
 Requested convergence on RMS density matrix=1.00D-08 within 128 cycles.
 Requested convergence on MAX density matrix=1.00D-06.
 Requested convergence on             energy=1.00D-06.
 No special actions if energy rises.
 Inv3:  Mode=1 IEnd=    15133548.
 Iteration    1 A*A^-1 deviation from unit magnitude is 4.77D-15 for   2245.
 Iteration    1 A*A^-1 deviation from orthogonality  is 1.80D-15 for   2107   2011.
 Iteration    1 A^-1*A deviation from unit magnitude is 4.77D-15 for   2245.
 Iteration    1 A^-1*A deviation from orthogonality  is 1.72D-15 for   2243   2187.
 Error on total polarization charges =  0.01100
 SCF Done:  E(RM062X) =  -747.192636569     A.U. after   14 cycles
            NFock= 14  Conv=0.42D-08     -V/T= 1.9994

 **********************************************************************

            Population analysis using the SCF Density.

 **********************************************************************

 Orbital symmetries:
       Occupied  (A) (A) (A) (A) (A) (A) (A) (A) (A) (A) (A) (A)
                 (A) (A) (A) (A) (A) (A) (A) (A) (A) (A) (A) (A)
                 (A) (A) (A) (A) (A) (A) (A) (A) (A) (A) (A) (A)
                 (A) (A) (A) (A) (A) (A) (A) (A) (A) (A) (A) (A)
       Virtual   (A) (A) (A) (A) (A) (A) (A) (A) (A) (A) (A) (A)
                 (A) (A) (A) (A) (A) (A) (A) (A) (A) (A) (A) (A)
                 (A) (A) (A) (A) (A) (A) (A) (A) (A) (A) (A) (A)
                 (A) (A) (A) (A) (A) (A) (A) (A) (A) (A) (A) (A)
                 (A) (A) (A) (A) (A) (A) (A) (A) (A) (A) (A) (A)
                 (A) (A) (A) (A) (A) (A) (A) (A) (A) (A) (A) (A)
                 (A) (A) (A) (A) (A) (A) (A) (A) (A) (A) (A) (A)
                 (A) (A) (A) (A) (A) (A) (A) (A) (A) (A) (A) (A)
                 (A) (A) (A) (A) (A) (A) (A) (A) (A) (A) (A) (A)
                 (A) (A) (A) (A) (A) (A) (A) (A) (A) (A) (A) (A)
                 (A) (A) (A) (A) (A) (A) (A) (A) (A) (A) (A) (A)
                 (A) (A) (A) (A) (A) (A) (A) (A) (A) (A) (A) (A)
                 (A) (A) (A) (A) (A) (A) (A) (A) (A) (A) (A) (A)
                 (A) (A) (A) (A) (A) (A) (A) (A) (A) (A) (A) (A)
                 (A) (A) (A) (A) (A) (A) (A) (A) (A) (A) (A) (A)
                 (A) (A) (A) (A) (A) (A) (A) (A) (A) (A) (A) (A)
                 (A) (A) (A) (A) (A) (A) (A) (A) (A) (A) (A) (A)
                 (A) (A) (A) (A) (A) (A) (A) (A) (A) (A) (A) (A)
                 (A) (A) (A) (A) (A) (A) (A) (A) (A) (A) (A) (A)
                 (A) (A) (A) (A) (A) (A) (A) (A) (A) (A) (A) (A)
                 (A) (A) (A) (A) (A) (A) (A) (A) (A) (A) (A) (A)
                 (A) (A) (A) (A) (A) (A) (A) (A) (A) (A) (A) (A)
                 (A) (A) (A) (A) (A) (A) (A) (A) (A) (A) (A) (A)
                 (A) (A) (A) (A) (A) (A) (A) (A) (A)
 The electronic state is 1-A.
 Alpha  occ. eigenvalues --  -25.27772 -25.23708 -25.23708 -25.23446 -19.64249
 Alpha  occ. eigenvalues --  -10.62301 -10.61909 -10.53143 -10.53140 -10.52688
 Alpha  occ. eigenvalues --  -10.52677 -10.51924  -1.38289  -1.35572  -1.35556
 Alpha  occ. eigenvalues --   -1.35260  -1.19435  -1.03833  -0.89987  -0.89221
 Alpha  occ. eigenvalues --   -0.75267  -0.74687  -0.73282  -0.67500  -0.65446
 Alpha  occ. eigenvalues --   -0.65394  -0.65118  -0.60761  -0.60283  -0.59916
 Alpha  occ. eigenvalues --   -0.58821  -0.54715  -0.54065  -0.53702  -0.52275
 Alpha  occ. eigenvalues --   -0.52261  -0.52238  -0.52054  -0.51996  -0.51985
 Alpha  occ. eigenvalues --   -0.51480  -0.48628  -0.47843  -0.45050  -0.42681
 Alpha  occ. eigenvalues --   -0.35381  -0.34422  -0.33654
 Alpha virt. eigenvalues --   -0.00803  -0.00742   0.00722   0.01208   0.01543
 Alpha virt. eigenvalues --    0.01997   0.02093   0.02925   0.03176   0.03689
 Alpha virt. eigenvalues --    0.04610   0.05640   0.06159   0.07079   0.07498
 Alpha virt. eigenvalues --    0.08321   0.08997   0.10077   0.10689   0.11577
 Alpha virt. eigenvalues --    0.11803   0.12067   0.12854   0.13123   0.13472
 Alpha virt. eigenvalues --    0.13847   0.13852   0.14537   0.14885   0.15169
 Alpha virt. eigenvalues --    0.15639   0.16384   0.17554   0.17755   0.18231
 Alpha virt. eigenvalues --    0.18387   0.19734   0.20231   0.20627   0.21042
 Alpha virt. eigenvalues --    0.21414   0.21597   0.22331   0.24859   0.25141
 Alpha virt. eigenvalues --    0.25882   0.27107   0.27557   0.28382   0.29259
 Alpha virt. eigenvalues --    0.29721   0.29965   0.30830   0.31264   0.32289
 Alpha virt. eigenvalues --    0.32763   0.34363   0.34449   0.35063   0.36410
 Alpha virt. eigenvalues --    0.36534   0.36611   0.37690   0.38439   0.38464
 Alpha virt. eigenvalues --    0.40195   0.40945   0.41141   0.42650   0.43263
 Alpha virt. eigenvalues --    0.43906   0.44288   0.45037   0.46045   0.47799
 Alpha virt. eigenvalues --    0.51563   0.53809   0.55089   0.56169   0.56876
 Alpha virt. eigenvalues --    0.57530   0.59204   0.59567   0.59782   0.61410
 Alpha virt. eigenvalues --    0.61952   0.62328   0.63765   0.65062   0.65126
 Alpha virt. eigenvalues --    0.65944   0.67396   0.67531   0.69297   0.70056
 Alpha virt. eigenvalues --    0.72867   0.75269   0.76535   0.76855   0.77267
 Alpha virt. eigenvalues --    0.81072   0.81291   0.82564   0.84484   0.85089
 Alpha virt. eigenvalues --    0.89230   0.89589   0.93014   0.96019   0.99632
 Alpha virt. eigenvalues --    1.00426   1.00915   1.01784   1.05762   1.06606
 Alpha virt. eigenvalues --    1.07937   1.08221   1.09957   1.10778   1.16207
 Alpha virt. eigenvalues --    1.16434   1.18245   1.21076   1.21890   1.23675
 Alpha virt. eigenvalues --    1.27272   1.31378   1.31931   1.33212   1.33424
 Alpha virt. eigenvalues --    1.34915   1.35098   1.35706   1.36484   1.39455
 Alpha virt. eigenvalues --    1.40376   1.43226   1.47280   1.47978   1.49469
 Alpha virt. eigenvalues --    1.49587   1.52344   1.53003   1.53645   1.54595
 Alpha virt. eigenvalues --    1.55641   1.56856   1.56876   1.61748   1.63610
 Alpha virt. eigenvalues --    1.64897   1.66798   1.67472   1.67506   1.68015
 Alpha virt. eigenvalues --    1.71447   1.72146   1.73144   1.76639   1.77023
 Alpha virt. eigenvalues --    1.80006   1.82007   1.85026   1.85288   1.85619
 Alpha virt. eigenvalues --    1.90585   1.92208   1.93820   1.95491   1.95660
 Alpha virt. eigenvalues --    1.97419   1.98781   2.04229   2.04499   2.05313
 Alpha virt. eigenvalues --    2.06589   2.07174   2.13082   2.15325   2.17251
 Alpha virt. eigenvalues --    2.17555   2.18435   2.19942   2.21806   2.26113
 Alpha virt. eigenvalues --    2.27124   2.36145   2.36528   2.40399   2.46281
 Alpha virt. eigenvalues --    2.48260   2.50254   2.50972   2.55174   2.55214
 Alpha virt. eigenvalues --    2.57082   2.62051   2.64394   2.67026   2.70726
 Alpha virt. eigenvalues --    2.71883   2.75242   2.76559   2.77503   2.77613
 Alpha virt. eigenvalues --    2.78973   2.81225   2.86018   2.86127   2.87975
 Alpha virt. eigenvalues --    2.88265   2.90281   2.96497   2.97840   2.99277
 Alpha virt. eigenvalues --    3.03532   3.08020   3.11805   3.24172   3.26936
 Alpha virt. eigenvalues --    3.34380   3.39552   3.42130   3.55047   3.59431
 Alpha virt. eigenvalues --    3.61374   3.64085   3.75034   3.75278   3.85256
 Alpha virt. eigenvalues --    3.87663   3.88346   3.88436   3.88502   3.88615
 Alpha virt. eigenvalues --    3.89082   3.89233   3.97184   4.00419   4.02521
 Alpha virt. eigenvalues --    4.08500   4.13030   4.13967   4.14545   4.14973
 Alpha virt. eigenvalues --    4.15534   4.15899   4.16365   4.18403   4.19488
 Alpha virt. eigenvalues --    4.25921   4.26087   4.36097   4.91177   4.91243
 Alpha virt. eigenvalues --    4.91694   4.94065   4.95605   5.11816   5.23414
 Alpha virt. eigenvalues --    5.83383   6.41206   6.42324   6.42761   6.44218
 Alpha virt. eigenvalues --    6.48589   6.49163   6.50574   6.61365   6.84987
 Alpha virt. eigenvalues --    6.85580   6.85947   6.92043  23.73296  24.17317
 Alpha virt. eigenvalues --   24.26403  24.31212  24.53659  24.56871  24.72438
 Alpha virt. eigenvalues --   50.07306  66.90750  66.91411  66.91420  66.95163
          Condensed to atoms (all electrons):
               1          2          3          4          5          6
     1  C   19.258629  -1.627532  -4.094140  -1.602545  -4.096638  -1.637394
     2  C   -1.627532  18.994891   2.587908  -1.082407  -1.986801 -11.140384
     3  C   -4.094140   2.587908   9.146296   1.178844  -0.993756  -1.989846
     4  C   -1.602545  -1.082407   1.178844   7.205367   1.181751  -1.076925
     5  C   -4.096638  -1.986801  -0.993756   1.181751   9.145247   2.585741
     6  C   -1.637394 -11.140384  -1.989846  -1.076925   2.585741  19.003449
     7  F    0.451839  -0.244687  -0.039360   0.032786  -0.039655  -0.246556
     8  H   -0.307004   0.586889   0.028273  -0.004631   0.064711  -0.081641
     9  H    0.012895  -0.066207   0.451234  -0.085583  -0.022692   0.060688
    10  H    0.027234  -0.025621  -0.066466   0.509037  -0.066442  -0.025489
    11  H    0.013160   0.060858  -0.022660  -0.085626   0.451109  -0.066501
    12  H   -0.307095  -0.082034   0.064612  -0.004720   0.028102   0.587721
    13  O    0.018215  -0.008210   0.000347  -0.000169   0.000356  -0.008271
    14  C   -0.004395   0.000398   0.000995   0.000319   0.000983   0.000247
    15  H    0.001361  -0.000228  -0.000095  -0.000122  -0.000097  -0.000247
    16  H   -0.001766   0.000487   0.000156   0.000033   0.000159   0.000522
    17  H    0.013239  -0.002084  -0.002298  -0.001991  -0.002337  -0.002362
    18  F    0.196310  -0.056282  -0.030637   0.001999  -0.030607  -0.056426
    19  H   -0.016085   0.013240   0.014036   0.003750  -0.007178   0.001975
    20  F   -0.092795   0.113306   0.020914   0.000832   0.002850  -0.041087
    21  H   -0.016378   0.001910  -0.007154   0.003766   0.014076   0.013524
    22  F   -0.092373  -0.040887   0.002842   0.000768   0.020632   0.113029
               7          8          9         10         11         12
     1  C    0.451839  -0.307004   0.012895   0.027234   0.013160  -0.307095
     2  C   -0.244687   0.586889  -0.066207  -0.025621   0.060858  -0.082034
     3  C   -0.039360   0.028273   0.451234  -0.066466  -0.022660   0.064612
     4  C    0.032786  -0.004631  -0.085583   0.509037  -0.085626  -0.004720
     5  C   -0.039655   0.064711  -0.022692  -0.066442   0.451109   0.028102
     6  C   -0.246556  -0.081641   0.060688  -0.025489  -0.066501   0.587721
     7  F    9.298381  -0.012283  -0.002032   0.001469  -0.002020  -0.012350
     8  H   -0.012283   0.577998  -0.023161   0.000904   0.002199   0.000895
     9  H   -0.002032  -0.023161   0.472230  -0.014473   0.000484   0.002205
    10  H    0.001469   0.000904  -0.014473   0.485328  -0.014468   0.000901
    11  H   -0.002020   0.002199   0.000484  -0.014468   0.472224  -0.023174
    12  H   -0.012350   0.000895   0.002205   0.000901  -0.023174   0.578108
    13  O    0.007531  -0.000095   0.000030   0.000004   0.000031  -0.000113
    14  C    0.002779   0.000265  -0.000018   0.000011  -0.000018   0.000265
    15  H   -0.000503   0.000179   0.000000  -0.000000  -0.000000   0.000183
    16  H   -0.000345  -0.000037   0.000000  -0.000001   0.000000  -0.000039
    17  H    0.014253  -0.002467   0.000401  -0.000180   0.000402  -0.002477
    18  F   -0.009548   0.001776  -0.000726   0.000196  -0.000726   0.001781
    19  H    0.014407  -0.013411   0.001321   0.000048  -0.000252   0.001497
    20  F   -0.005224   0.010583  -0.002041  -0.000088   0.000212  -0.001124
    21  H    0.014479   0.001492  -0.000252   0.000048   0.001319  -0.013407
    22  F   -0.005255  -0.001120   0.000212  -0.000089  -0.002036   0.010558
              13         14         15         16         17         18
     1  C    0.018215  -0.004395   0.001361  -0.001766   0.013239   0.196310
     2  C   -0.008210   0.000398  -0.000228   0.000487  -0.002084  -0.056282
     3  C    0.000347   0.000995  -0.000095   0.000156  -0.002298  -0.030637
     4  C   -0.000169   0.000319  -0.000122   0.000033  -0.001991   0.001999
     5  C    0.000356   0.000983  -0.000097   0.000159  -0.002337  -0.030607
     6  C   -0.008271   0.000247  -0.000247   0.000522  -0.002362  -0.056426
     7  F    0.007531   0.002779  -0.000503  -0.000345   0.014253  -0.009548
     8  H   -0.000095   0.000265   0.000179  -0.000037  -0.002467   0.001776
     9  H    0.000030  -0.000018   0.000000   0.000000   0.000401  -0.000726
    10  H    0.000004   0.000011  -0.000000  -0.000001  -0.000180   0.000196
    11  H    0.000031  -0.000018  -0.000000   0.000000   0.000402  -0.000726
    12  H   -0.000113   0.000265   0.000183  -0.000039  -0.002477   0.001781
    13  O    8.213613   0.278007  -0.089888  -0.087783   0.006575  -0.002256
    14  C    0.278007   4.794070   0.419433   0.416504  -0.000173  -0.000038
    15  H   -0.089888   0.419433   0.663552  -0.120026  -0.000851   0.000212
    16  H   -0.087783   0.416504  -0.120026   0.663090   0.000227  -0.000127
    17  H    0.006575  -0.000173  -0.000851   0.000227   0.365635   0.333125
    18  F   -0.002256  -0.000038   0.000212  -0.000127   0.333125   8.923257
    19  H    0.006067  -0.000173  -0.000202  -0.000158   0.001457  -0.000761
    20  F   -0.001329   0.000329  -0.000098  -0.000060  -0.000716   0.000185
    21  H    0.006072  -0.000179  -0.000205  -0.000159   0.001460  -0.000760
    22  F   -0.001319   0.000340  -0.000099  -0.000062  -0.000717   0.000185
              19         20         21         22
     1  C   -0.016085  -0.092795  -0.016378  -0.092373
     2  C    0.013240   0.113306   0.001910  -0.040887
     3  C    0.014036   0.020914  -0.007154   0.002842
     4  C    0.003750   0.000832   0.003766   0.000768
     5  C   -0.007178   0.002850   0.014076   0.020632
     6  C    0.001975  -0.041087   0.013524   0.113029
     7  F    0.014407  -0.005224   0.014479  -0.005255
     8  H   -0.013411   0.010583   0.001492  -0.001120
     9  H    0.001321  -0.002041  -0.000252   0.000212
    10  H    0.000048  -0.000088   0.000048  -0.000089
    11  H   -0.000252   0.000212   0.001319  -0.002036
    12  H    0.001497  -0.001124  -0.013407   0.010558
    13  O    0.006067  -0.001329   0.006072  -0.001319
    14  C   -0.000173   0.000329  -0.000179   0.000340
    15  H   -0.000202  -0.000098  -0.000205  -0.000099
    16  H   -0.000158  -0.000060  -0.000159  -0.000062
    17  H    0.001457  -0.000716   0.001460  -0.000717
    18  F   -0.000761   0.000185  -0.000760   0.000185
    19  H    0.397288   0.330653   0.000574  -0.000496
    20  F    0.330653   8.917702  -0.000492   0.000253
    21  H    0.000574  -0.000492   0.397226   0.330697
    22  F   -0.000496   0.000253   0.330697   8.917695
 Mulliken charges:
               1
     1  C   -0.096743
     2  C    0.003476
     3  C   -0.250044
     4  C   -0.174535
     5  C   -0.249514
     6  C    0.006233
     7  F   -0.218104
     8  H    0.169686
     9  H    0.215485
    10  H    0.188137
    11  H    0.215483
    12  H    0.169705
    13  O   -0.337414
    14  C    0.090048
    15  H    0.127742
    16  H    0.129384
    17  H    0.281881
    18  F   -0.270130
    19  H    0.252403
    20  F   -0.252764
    21  H    0.252342
    22  F   -0.252757
 Sum of Mulliken charges =  -0.00000
 Mulliken charges with hydrogens summed into heavy atoms:
               1
     1  C   -0.096743
     2  C    0.173162
     3  C   -0.034560
     4  C    0.013602
     5  C   -0.034030
     6  C    0.175938
     7  F   -0.218104
    13  O   -0.337414
    14  C    0.347173
    18  F    0.011752
    20  F   -0.000362
    22  F   -0.000415
 Electronic spatial extent (au):  <R**2>=           3214.4783
 Charge=             -0.0000 electrons
 Dipole moment (field-independent basis, Debye):
    X=              1.0598    Y=             -0.0070    Z=             -0.0265  Tot=              1.0601
 Quadrupole moment (field-independent basis, Debye-Ang):
   XX=            -33.0117   YY=            -77.9685   ZZ=            -86.3842
   XY=              0.0082   XZ=             -0.0183   YZ=             -0.0002
 Traceless Quadrupole moment (field-independent basis, Debye-Ang):
   XX=             32.7764   YY=            -12.1803   ZZ=            -20.5961
   XY=              0.0082   XZ=             -0.0183   YZ=             -0.0002
 Octapole moment (field-independent basis, Debye-Ang**2):
  XXX=            146.0695  YYY=             -0.0640  ZZZ=            -30.5177  XYY=             -8.8916
  XXY=             -0.0273  XXZ=             -0.0196  XZZ=             12.1082  YZZ=             -0.0062
  YYZ=             30.2298  XYZ=             -0.0402
 Hexadecapole moment (field-independent basis, Debye-Ang**3):
 XXXX=          -1512.3351 YYYY=           -902.9179 ZZZZ=           -729.5139 XXXY=             -0.2871
 XXXZ=              0.0379 YYYX=              0.1174 YYYZ=              0.1856 ZZZX=            -21.6750
 ZZZY=             -0.0639 XXYY=           -509.4772 XXZZ=           -519.2882 YYZZ=           -281.4935
 XXYZ=             -0.0575 YYXZ=             21.5937 ZZXY=              0.0029
 N-N= 6.987123834841D+02 E-N=-3.163769038883D+03  KE= 7.476685616948D+02
 D1PCM: PCM CHGder 1st derivatives, ID1Alg=3 FixD1E=F DoIter=F DoCFld=F I1PDM=0.
 Calling FoFJK, ICntrl=      2127 FMM=F ISym2X=0 I1Cent= 0 IOpClX= 0 NMat=1 NMatS=1 NMatT=0.
 ***** Axes restored to original set *****
 -------------------------------------------------------------------
 Center     Atomic                   Forces (Hartrees/Bohr)
 Number     Number              X              Y              Z
 -------------------------------------------------------------------
      1        6          -0.076511795    0.000349962   -0.044172729
      2        6          -0.054629957    0.000105747    0.013615107
      3        6           0.002729474    0.000172578    0.037397248
      4        6           0.038611691   -0.000211126    0.022292456
      5        6           0.033755672    0.000172500   -0.016329193
      6        6          -0.015517046    0.000106660   -0.054120082
      7        9           0.015821917   -0.000213973    0.009135410
      8        1          -0.064535081    0.000591319    0.037321510
      9        1          -0.001877270    0.000003491    0.073616186
     10        1           0.064163477    0.000013295    0.037045369
     11        1           0.062814094    0.000003414   -0.038435404
     12        1           0.000056064    0.000592761   -0.074548280
     13        8           0.017679346    0.000118038    0.010198982
     14        6           0.060184486   -0.000022586    0.035075292
     15        1          -0.038987646    0.071408843   -0.022672666
     16        1          -0.038981058   -0.071409503   -0.022670003
     17        1          -0.005400631   -0.030556078   -0.003117219
     18        9           0.004607236    0.027684981    0.002660588
     19        1           0.007231166    0.014491967   -0.026975946
     20        9          -0.007959444   -0.013947941    0.023651468
     21        1          -0.019757145    0.014494184    0.019753658
     22        9           0.016502451   -0.013948532   -0.018721752
 -------------------------------------------------------------------
 Cartesian Forces:  Max     0.076511795 RMS     0.032947962
 -----------------------------------------------------------------------------------------------
                       Internal Coordinate Forces (Hartree/Bohr or radian)
  Cent   Atom   N1       Length/X         N2         Alpha/Y        N3         Beta/Z          J
 -----------------------------------------------------------------------------------------------
      1  C 
      2  C        1   0.037892(     1)
      3  C        2   0.153483(     2)      1   0.161171(    22)
      4  C        3   0.221296(     3)      2   0.415966(    23)      1   0.002341(    42)     0
      5  C        4   0.183396(     4)      3   0.450459(    24)      2   0.003334(    43)     0
      6  C        5   0.077686(     5)      4   0.251149(    25)      3   0.001472(    44)     0
      7  F        1  -0.012634(     6)      2  -0.000013(    26)      3   0.000599(    45)     0
      8  H        2   0.074550(     7)      3  -0.000102(    27)      4   0.000968(    46)     0
      9  H        3   0.073616(     8)      4   0.003548(    28)      5   0.000006(    47)     0
     10  H        4   0.074090(     9)      5   0.000001(    29)      6   0.000022(    48)     0
     11  H        5   0.073616(    10)      6  -0.003551(    30)      1   0.000006(    49)     0
     12  H        6   0.074548(    11)      1   0.000106(    31)      2   0.000970(    50)     0
     13  O        7   0.000125(    12)      1  -0.000035(    32)      3  -0.000001(    51)     0
     14  C       13   0.020535(    13)      1   0.000106(    33)      2   0.000000(    52)     0
     15  H       14   0.084392(    14)      1   0.006338(    34)      2   0.000117(    53)     0
     16  H       14   0.084389(    15)      1   0.006326(    35)      2  -0.000118(    54)     0
     17  H        7  -0.002669(    16)      1   0.005350(    36)      2  -0.000006(    55)     0
     18  F       17   0.028188(    17)      7  -0.000735(    37)      1  -0.000000(    56)     0
     19  H        7  -0.002015(    18)      1   0.011718(    38)      2  -0.003111(    57)     0
     20  F       19   0.028588(    19)      7   0.000055(    39)      1   0.000088(    58)     0
     21  H        7  -0.002019(    20)      1   0.011769(    40)      2   0.003117(    59)     0
     22  F       21   0.028590(    21)      7   0.000059(    41)      1  -0.000089(    60)     0
 -----------------------------------------------------------------------------------------------
 Internal  Forces:  Max     0.450458503 RMS     0.101963208

 GradGradGradGradGradGradGradGradGradGradGradGradGradGradGradGradGradGrad
 Berny optimization.
 Search for a local minimum.
 Step number   1 out of a maximum of   31
 All quantities printed in internal units (Hartrees-Bohrs-Radians)
 Second derivative matrix not updated -- first step.
 ITU=  0
     Eigenvalues ---    0.02330   0.02721   0.02721   0.02721   0.45621
     Eigenvalues ---    0.47688   0.47688   0.47688   0.47688   0.47688
     Eigenvalues ---    0.47688   0.47688   0.67193   0.67193   0.67193
     Eigenvalues ---    0.70673   0.70673   0.70673   1.04823   1.12429
     Eigenvalues ---    2.01579
 RFO step:  Lambda=-1.63429082D-01 EMin= 2.33007068D-02
 Linear search not attempted -- first point.
 Maximum step size (   0.300) exceeded in Quadratic search.
    -- Step size scaled by   0.670
 Variable       Old X    -DE/DX   Delta X   Delta X   Delta X     New X
                                 (Linear)    (Quad)   (Total)
    d1        2.45664   0.03789   0.00000   0.07635   0.07635   2.53299
    d2        2.45664   0.15348   0.00000   0.08697   0.08697   2.54361
    d3        2.45664   0.22130   0.00000   0.09540   0.09540   2.55204
    d4        2.45664   0.18340   0.00000   0.10114   0.10114   2.55778
    d5        2.45664   0.07769   0.00000   0.09844   0.09844   2.55509
    d6        2.64562  -0.01263   0.00000  -0.01366  -0.01366   2.63196
    d7        1.88973   0.07455   0.00000   0.07801   0.07801   1.96773
    d8        1.88973   0.07362   0.00000   0.07703   0.07703   1.96676
    d9        1.88973   0.07409   0.00000   0.07753   0.07753   1.96725
   d10        1.88973   0.07362   0.00000   0.07703   0.07703   1.96676
   d11        1.88973   0.07455   0.00000   0.07801   0.07801   1.96773
   d12        5.29123   0.00013   0.00000   0.00045   0.00045   5.29168
   d13        2.26767   0.02054   0.00000   0.01136   0.01136   2.27903
   d14        1.88973   0.08439   0.00000   0.08831   0.08831   1.97803
   d15        1.88973   0.08439   0.00000   0.08830   0.08830   1.97803
   d16        4.34637  -0.00267   0.00000  -0.00938  -0.00938   4.33699
   d17        1.70075   0.02819   0.00000   0.02170   0.02170   1.72246
   d18        4.34637  -0.00201   0.00000  -0.00708  -0.00708   4.33929
   d19        1.70075   0.02859   0.00000   0.02201   0.02201   1.72277
   d20        4.34637  -0.00202   0.00000  -0.00710  -0.00710   4.33927
   d21        1.70075   0.02859   0.00000   0.02201   0.02201   1.72277
         Item               Value     Threshold  Converged?
 Maximum Force            0.221296     0.000450     NO 
 RMS     Force            0.086835     0.000300     NO 
 Maximum Displacement     0.101138     0.001800     NO 
 RMS     Displacement     0.065465     0.001200     NO 
 Predicted change in Energy=-8.017032D-02
 GradGradGradGradGradGradGradGradGradGradGradGradGradGradGradGradGradGrad

 ---------------------------------------------------------------------------------------------------
                            Z-MATRIX (ANGSTROMS AND DEGREES)
   CD    Cent   Atom    N1       Length/X        N2       Alpha/Y        N3        Beta/Z          J
 ---------------------------------------------------------------------------------------------------
      1      1  C 
      2      2  C        1   1.340401(     1)
      3      3  C        2   1.346020(     2)      1  120.000(    22)
      4      4  C        3   1.350484(     3)      2  120.000(    23)      1    0.000(    42)      0
      5      5  C        4   1.353520(     4)      3  120.000(    24)      2    0.000(    43)      0
      6      6  C        5   1.352094(     5)      4  120.000(    25)      3    0.000(    44)      0
      7      7  F        1   1.392771(     6)      2  120.000(    26)      3  180.000(    45)      0
      8      8  H        2   1.041279(     7)      3  120.000(    27)      4  180.000(    46)      0
      9      9  H        3   1.040762(     8)      4  120.000(    28)      5  180.000(    47)      0
     10     10  H        4   1.041025(     9)      5  120.000(    29)      6  180.000(    48)      0
     11     11  H        5   1.040762(    10)      6  120.000(    30)      1  180.000(    49)      0
     12     12  H        6   1.041278(    11)      1  120.000(    31)      2  180.000(    50)      0
     13     13  O        7   2.800237(    12)      1  179.900(    32)      3  180.000(    51)      0
     14     14  C       13   1.206009(    13)      1  179.900(    33)      2  180.000(    52)      0
     15     15  H       14   1.046729(    14)      1  120.000(    34)      2   90.000(    53)      0
     16     16  H       14   1.046728(    15)      1  120.000(    35)      2  -90.000(    54)      0
     17     17  H        7   2.295037(    16)      1  100.000(    36)      2   90.000(    55)      0
     18     18  F       17   0.911485(    17)      7  160.000(    37)      1    0.000(    56)      0
     19     19  H        7   2.296253(    18)      1  100.000(    38)      2  -30.000(    57)      0
     20     20  F       19   0.911648(    19)      7  160.000(    39)      1    0.000(    58)      0
     21     21  H        7   2.296245(    20)      1  100.000(    40)      2 -150.000(    59)      0
     22     22  F       21   0.911649(    21)      7  160.000(    41)      1    0.000(    60)      0
 ---------------------------------------------------------------------------------------------------
                         Z-Matrix orientation:                         
 ---------------------------------------------------------------------
 Center     Atomic      Atomic             Coordinates (Angstroms)
 Number     Number       Type             X           Y           Z
 ---------------------------------------------------------------------
      1          6           0        0.000000    0.000000    0.000000
      2          6           0        0.000000    0.000000    1.340401
      3          6           0        1.165688    0.000000    2.013411
      4          6           0        2.335241    0.000000    1.338169
      5          6           0        2.335241    0.000000   -0.015350
      6          6           0        1.164293    0.000000   -0.691398
      7          9           0       -1.206175   -0.000000   -0.696386
      8          1           0       -0.901774   -0.000000    1.861041
      9          1           0        1.165688   -0.000000    3.054174
     10          1           0        3.236795   -0.000000    1.858682
     11          1           0        3.236568   -0.000000   -0.535732
     12          1           0        1.151512   -0.000000   -1.732598
     13          8           0       -3.628804   -0.000000   -2.100735
     14          6           0       -4.671479   -0.000000   -2.706777
     15          1           0       -5.124319    0.906494   -2.969164
     16          1           0       -5.124318   -0.906493   -2.969163
     17          1           0       -1.551311    2.260170   -0.895650
     18          9           0       -1.414239    3.157808   -0.816511
     19          1           0       -2.530695   -1.130684    0.800270
     20          9           0       -2.782356   -1.579583    1.552772
     21          1           0       -0.572295   -1.130680   -2.591775
     22          9           0       -0.046440   -1.579580   -3.185971
 ---------------------------------------------------------------------
                    Distance matrix (angstroms):
                    1          2          3          4          5
     1  C    0.000000
     2  C    1.340401   0.000000
     3  C    2.326511   1.346020   0.000000
     4  C    2.691477   2.335242   1.350484   0.000000
     5  C    2.335292   2.700262   2.341736   1.353520   0.000000
     6  C    1.354108   2.341748   2.704809   2.343131   1.352094
     7  F    1.392771   2.367141   3.601213   4.084243   3.606305
     8  H    2.068011   1.041279   2.073069   3.278973   3.741539
     9  H    3.269068   2.072642   1.040762   2.076662   3.284788
    10  H    3.732498   3.278026   2.076879   1.041025   2.079614
    11  H    3.280607   3.741022   3.284307   2.079398   1.040762
    12  H    2.080354   3.281661   3.746036   3.291022   2.085702
    13  O    4.193007   5.000964   6.317702   6.884468   6.318122
    14  C    5.399014   6.180806   7.506843   8.090471   7.505858
    15  H    5.991353   6.756680   8.075393   8.661402   8.074142
    16  H    5.991352   6.756679   8.075392   8.661401   8.074141
    17  H    2.883943   3.537635   4.577455   5.020320   4.581330
    18  F    3.555069   4.077266   4.963490   5.354718   4.967113
    19  H    2.885013   2.823934   4.051346   5.024452   5.061721
    20  F    3.556359   3.206508   4.277186   5.360125   5.580671
    21  H    2.885006   4.131340   5.050422   5.017636   4.046007
    22  F    3.556352   4.794296   5.567576   5.351198   4.268526
                    6          7          8          9         10
     6  C    0.000000
     7  F    2.370473   0.000000
     8  H    3.283836   2.575478   0.000000
     9  H    3.745571   4.437615   2.387041   0.000000
    10  H    3.286057   5.125266   4.138570   2.391377   0.000000
    11  H    2.078113   4.445647   4.782300   4.144389   2.394413
    12  H    1.041278   2.575349   4.138867   4.786792   4.152793
    13  O    4.996000   2.800237   4.809611   7.039903   7.925493
    14  C    6.173977   4.006246   5.922468   8.201285   9.131495
    15  H    6.749562   4.619426   6.479389   8.755941   9.697321
    16  H    6.749561   4.619425   6.479388   8.755940   9.697320
    17  H    3.539011   2.295037   3.623481   5.300147   5.968306
    18  F    4.078754   3.166934   4.171769   5.622275   6.225795
    19  H    4.142035   2.296253   2.248791   4.474570   5.971819
    20  F    4.807018   3.168302   2.475217   4.509583   6.230477
    21  H    2.811692   2.296245   4.605927   6.014629   5.966085
    22  F    3.191213   3.168295   5.357145   6.550094   6.222799
                   11         12         13         14         15
    11  H    0.000000
    12  H    2.404152   0.000000
    13  O    7.041489   4.794470   0.000000
    14  C    8.200649   5.903918   1.206009   0.000000
    15  H    8.754870   6.460408   1.952553   1.046729   0.000000
    16  H    8.754869   6.460407   1.952552   1.046728   1.812987
    17  H    5.306760   3.621340   3.297965   4.257229   4.347215
    18  F    5.628551   4.170617   4.065130   4.914720   4.844277
    19  H    6.026995   4.610045   3.301533   4.261547   5.008554
    20  F    6.563869   5.363213   4.069357   4.920124   5.666857
    21  H    4.473610   2.233413   3.295725   4.253818   5.001341
    22  F    4.505217   2.458140   4.062776   4.910773   5.657952
                   16         17         18         19         20
    16  H    0.000000
    17  H    5.205150   0.000000
    18  F    5.909073   0.911485   0.000000
    19  H    4.581023   3.915767   4.717163   0.000000
    20  F    5.136705   4.717409   5.470660   0.911648   0.000000
    21  H    4.573138   3.915760   4.717156   3.916797   4.718385
    22  F    5.126880   4.717403   5.470654   4.718385   5.471830
                   21         22
    21  H    0.000000
    22  F    0.911649   0.000000
 Stoichiometry    C7H10F4O
 Framework group  C1[X(C7H10F4O)]
 Deg. of freedom    60
 Full point group                 C1      NOp   1
 Largest Abelian subgroup         C1      NOp   1
 Largest concise Abelian subgroup C1      NOp   1
                         Standard orientation:                         
 ---------------------------------------------------------------------
 Center     Atomic      Atomic             Coordinates (Angstroms)
 Number     Number       Type             X           Y           Z
 ---------------------------------------------------------------------
      1          6           0       -0.858028    0.005317    0.000104
      2          6           0       -1.527290    1.166680    0.000082
      3          6           0       -2.873310    1.167769    0.000027
      4          6           0       -3.549497   -0.001237   -0.000006
      5          6           0       -2.873686   -1.173967    0.000016
      6          6           0       -1.521592   -1.175061    0.000071
      7          9           0        0.534742    0.004190    0.000161
      8          1           0       -1.005920    2.068033    0.000108
      9          1           0       -3.392961    2.069517    0.000010
     10          1           0       -4.590522   -0.000395   -0.000049
     11          1           0       -3.394796   -2.074872   -0.000010
     12          1           0       -0.990648   -2.070805    0.000089
     13          8           0        3.334970   -0.002962    0.000276
     14          6           0        4.540971   -0.007449    0.000326
     15          1           0        5.064297   -0.008691    0.906842
     16          1           0        5.064371   -0.008682   -0.906145
     17          1           0        0.933178    0.003857    2.260348
     18          9           0        0.774864    0.003981    3.157980
     19          1           0        0.935113    1.962275   -1.130496
     20          9           0        0.777455    2.739921   -1.579398
     21          1           0        0.931943   -1.954521   -1.130512
     22          9           0        0.773026   -2.731908   -1.579422
 ---------------------------------------------------------------------
 Rotational constants (GHZ):           0.7555661           0.3968891           0.3729851
 Standard basis: 6-311++G(d,p) (5D, 7F)
 There are   346 symmetry adapted cartesian basis functions of A   symmetry.
 There are   334 symmetry adapted basis functions of A   symmetry.
   334 basis functions,   522 primitive gaussians,   346 cartesian basis functions
    48 alpha electrons       48 beta electrons
       nuclear repulsion energy       687.8552468801 Hartrees.
 NAtoms=   22 NActive=   22 NUniq=   22 SFac= 1.00D+00 NAtFMM=   60 NAOKFM=F Big=F
 Integral buffers will be    131072 words long.
 Raffenetti 2 integral format.
 Two-electron integral symmetry is turned on.
 ------------------------------------------------------------------------------
 Polarizable Continuum Model (PCM)
 =================================
 Model                : PCM.
 Atomic radii         : UFF (Universal Force Field).
 Polarization charges : Total charges.
 Charge compensation  : None.
 Solution method      : On-the-fly selection.
 Cavity type          : Scaled VdW (van der Waals Surface) (Alpha=1.100).
 Cavity algorithm     : GePol (No added spheres)
                        Default sphere list used, NSphG=   22.
                        Lebedev-Laikov grids with approx.  5.0 points / Ang**2.
                        Smoothing algorithm: York/Karplus (Gamma=1.0000).
                        Polarization charges: spherical gaussians, with
                                              point-specific exponents (IZeta= 3).
                        Self-potential: point-specific (ISelfS= 7).
                        Self-field    : sphere-specific E.n sum rule (ISelfD= 2).
 1st derivatives      : Analytical E(r).r(x)/FMM algorithm (CHGder, D1EAlg=3).
                        Cavity 1st derivative terms included.
 Solvent              : DiChloroEthane, Eps=  10.125000 Eps(inf)=   2.087447
 ------------------------------------------------------------------------------
 One-electron integrals computed using PRISM.
 NBasis=   334 RedAO= T EigKep=  3.97D-06  NBF=   334
 NBsUse=   333 1.00D-06 EigRej=  6.09D-07 NBFU=   333
 Initial guess from the checkpoint file:  "/home/lywu/software/g16/scr/Gau-5978.chk"
 B after Tr=     0.000000    0.000000   -0.000000
         Rot=    1.000000   -0.000002    0.000017    0.000421 Ang=  -0.05 deg.
 ExpMin= 3.60D-02 ExpMax= 1.14D+04 ExpMxC= 1.72D+03 IAcc=3 IRadAn=         5 AccDes= 0.00D+00
 Harris functional with IExCor= 1009 and IRadAn=       5 diagonalized for initial guess.
 HarFok:  IExCor= 1009 AccDes= 0.00D+00 IRadAn=         5 IDoV= 1 UseB2=F ITyADJ=14
 ICtDFT=  3500011 ScaDFX=  1.000000  1.000000  1.000000  1.000000
 FoFCou: FMM=F IPFlag=           0 FMFlag=      100000 FMFlg1=           0
         NFxFlg=           0 DoJE=T BraDBF=F KetDBF=T FulRan=T
         wScrn=  0.000000 ICntrl=       500 IOpCl=  0 I1Cent=   200000004 NGrid=           0
         NMat0=    1 NMatS0=      1 NMatT0=    0 NMatD0=    1 NMtDS0=    0 NMtDT0=    0
 Petite list used in FoFCou.
 Requested convergence on RMS density matrix=1.00D-08 within 128 cycles.
 Requested convergence on MAX density matrix=1.00D-06.
 Requested convergence on             energy=1.00D-06.
 No special actions if energy rises.
 Inv3:  Mode=1 IEnd=    15595200.
 Iteration    1 A*A^-1 deviation from unit magnitude is 5.77D-15 for   2260.
 Iteration    1 A*A^-1 deviation from orthogonality  is 2.24D-15 for   1835    260.
 Iteration    1 A^-1*A deviation from unit magnitude is 5.77D-15 for   2260.
 Iteration    1 A^-1*A deviation from orthogonality  is 1.24D-15 for   2057    180.
 Error on total polarization charges =  0.01176
 SCF Done:  E(RM062X) =  -747.268787955     A.U. after   13 cycles
            NFock= 13  Conv=0.34D-08     -V/T= 2.0015
 D1PCM: PCM CHGder 1st derivatives, ID1Alg=3 FixD1E=F DoIter=F DoCFld=F I1PDM=0.
 Calling FoFJK, ICntrl=      2127 FMM=F ISym2X=0 I1Cent= 0 IOpClX= 0 NMat=1 NMatS=1 NMatT=0.
 ***** Axes restored to original set *****
 -------------------------------------------------------------------
 Center     Atomic                   Forces (Hartrees/Bohr)
 Number     Number              X              Y              Z
 -------------------------------------------------------------------
      1        6          -0.019895161    0.000275533   -0.026081929
      2        6          -0.030008931    0.000208611    0.007699547
      3        6           0.008119805    0.000158549    0.010014826
      4        6           0.011702404   -0.000209083    0.004674072
      5        6           0.006093221    0.000154697   -0.001163749
      6        6          -0.012298757    0.000270493   -0.016897434
      7        9           0.014919429   -0.000191464    0.009433775
      8        1          -0.029075692    0.000590341    0.016818264
      9        1          -0.001533710    0.000007378    0.033107641
     10        1           0.028877392    0.000009815    0.016504497
     11        1           0.027904809    0.000010126   -0.017938599
     12        1           0.000364711    0.000635096   -0.033157171
     13        8           0.003770122    0.000129081    0.002109717
     14        6           0.035983867   -0.000022829    0.021065396
     15        1          -0.019876660    0.031960535   -0.011594014
     16        1          -0.019871100   -0.031961091   -0.011591923
     17        1          -0.003100194   -0.015541769   -0.001791826
     18        9           0.002310233    0.012804425    0.001335021
     19        1           0.002898608    0.006826171   -0.014399392
     20        9          -0.003818076   -0.006427275    0.011065181
     21        1          -0.011099910    0.006775292    0.009698087
     22        9           0.007633590   -0.006462632   -0.008909987
 -------------------------------------------------------------------
 Cartesian Forces:  Max     0.035983867 RMS     0.014999780
 -----------------------------------------------------------------------------------------------
                       Internal Coordinate Forces (Hartree/Bohr or radian)
  Cent   Atom   N1       Length/X         N2         Alpha/Y        N3         Beta/Z          J
 -----------------------------------------------------------------------------------------------
      1  C 
      2  C        1   0.020172(     1)
      3  C        2   0.058044(     2)      1   0.028950(    22)
      4  C        3   0.078248(     3)      2   0.127009(    23)      1   0.003281(    42)     0
      5  C        4   0.068647(     4)      3   0.148582(    24)      2   0.004349(    43)     0
      6  C        5   0.034845(     5)      4   0.091658(    25)      3   0.001989(    44)     0
      7  F        1  -0.011654(     6)      2  -0.002377(    26)      3   0.001180(    45)     0
      8  H        2   0.033589(     7)      3  -0.000054(    27)      4   0.001006(    46)     0
      9  H        3   0.033108(     8)      4   0.003016(    28)      5   0.000013(    47)     0
     10  H        4   0.033261(     9)      5  -0.000286(    29)      6   0.000017(    48)     0
     11  H        5   0.033136(    10)      6  -0.003113(    30)      1   0.000017(    49)     0
     12  H        6   0.033150(    11)      1   0.001518(    31)      2   0.001082(    50)     0
     13  O        7   0.000000(    12)      1  -0.000066(    32)      3  -0.000001(    51)     0
     14  C       13   0.004320(    13)      1   0.000103(    33)      2   0.000000(    52)     0
     15  H       14   0.039184(    14)      1   0.007809(    34)      2   0.000114(    53)     0
     16  H       14   0.039182(    15)      1   0.007798(    35)      2  -0.000116(    54)     0
     17  H        7  -0.002537(    16)      1   0.005263(    36)      2   0.000001(    55)     0
     18  F       17   0.013073(    17)      7  -0.000696(    37)      1  -0.000001(    56)     0
     19  H        7  -0.001839(    18)      1   0.012423(    38)      2  -0.003406(    57)     0
     20  F       19   0.013352(    19)      7   0.000162(    39)      1   0.000106(    58)     0
     21  H        7  -0.001761(    20)      1   0.013135(    40)      2   0.003716(    59)     0
     22  F       21   0.013393(    21)      7   0.000297(    41)      1  -0.000100(    60)     0
 -----------------------------------------------------------------------------------------------
 Internal  Forces:  Max     0.148581878 RMS     0.034912500

 GradGradGradGradGradGradGradGradGradGradGradGradGradGradGradGradGradGrad
 Berny optimization.
 Search for a local minimum.
 Step number   2 out of a maximum of   31
 All quantities printed in internal units (Hartrees-Bohrs-Radians)
 Update second derivatives using D2CorN and points    1    2
 DE= -7.62D-02 DEPred=-8.02D-02 R= 9.50D-01
 TightC=F SS=  1.41D+00  RLast= 3.00D-01 DXNew= 5.0454D-01 9.0000D-01
 Trust test= 9.50D-01 RLast= 3.00D-01 DXMaxT set to 5.05D-01
 ITU=  1  0
     Eigenvalues ---    0.02330   0.02719   0.02721   0.02721   0.45472
     Eigenvalues ---    0.47675   0.47688   0.47688   0.47688   0.47688
     Eigenvalues ---    0.47688   0.49646   0.67187   0.67193   0.70397
     Eigenvalues ---    0.70672   0.70673   0.70938   1.04892   1.12470
     Eigenvalues ---    2.02299
 RFO step:  Lambda=-3.60659479D-03 EMin= 2.33011713D-02
 Quartic linear search produced a step of  0.90075.
 Variable       Old X    -DE/DX   Delta X   Delta X   Delta X     New X
                                 (Linear)    (Quad)   (Total)
    d1        2.53299   0.02017   0.06877   0.00324   0.07201   2.60500
    d2        2.54361   0.05804   0.07833  -0.00852   0.06981   2.61342
    d3        2.55204   0.07825   0.08593  -0.02226   0.06368   2.61572
    d4        2.55778   0.06865   0.09110  -0.01284   0.07826   2.63604
    d5        2.55509   0.03484   0.08867  -0.00121   0.08746   2.64255
    d6        2.63196  -0.01165  -0.01230  -0.02808  -0.04039   2.59157
    d7        1.96773   0.03359   0.07026   0.01529   0.08555   2.05328
    d8        1.96676   0.03311   0.06938   0.01485   0.08423   2.05099
    d9        1.96725   0.03326   0.06983   0.01470   0.08453   2.05178
   d10        1.96676   0.03314   0.06938   0.01496   0.08435   2.05110
   d11        1.96773   0.03315   0.07026   0.01351   0.08377   2.05150
   d12        5.29168   0.00000   0.00040  -0.00207  -0.00166   5.29002
   d13        2.27903   0.00432   0.01023  -0.00847   0.00176   2.28078
   d14        1.97803   0.03918   0.07954   0.02201   0.10155   2.07958
   d15        1.97803   0.03918   0.07954   0.02200   0.10154   2.07957
   d16        4.33699  -0.00254  -0.00845  -0.12093  -0.12938   4.20761
   d17        1.72246   0.01307   0.01955   0.00349   0.02304   1.74550
   d18        4.33929  -0.00184  -0.00638  -0.08647  -0.09285   4.24644
   d19        1.72277   0.01335   0.01983   0.00380   0.02363   1.74639
   d20        4.33927  -0.00176  -0.00639  -0.08149  -0.08788   4.25139
   d21        1.72277   0.01339   0.01983   0.00391   0.02374   1.74650
         Item               Value     Threshold  Converged?
 Maximum Force            0.078248     0.000450     NO 
 RMS     Force            0.034586     0.000300     NO 
 Maximum Displacement     0.129379     0.001800     NO 
 RMS     Displacement     0.075774     0.001200     NO 
 Predicted change in Energy=-1.524209D-02
 GradGradGradGradGradGradGradGradGradGradGradGradGradGradGradGradGradGrad

 ---------------------------------------------------------------------------------------------------
                            Z-MATRIX (ANGSTROMS AND DEGREES)
   CD    Cent   Atom    N1       Length/X        N2       Alpha/Y        N3        Beta/Z          J
 ---------------------------------------------------------------------------------------------------
      1      1  C 
      2      2  C        1   1.378505(     1)
      3      3  C        2   1.382965(     2)      1  120.000(    22)
      4      4  C        3   1.384179(     3)      2  120.000(    23)      1    0.000(    42)      0
      5      5  C        4   1.394935(     4)      3  120.000(    24)      2    0.000(    43)      0
      6      6  C        5   1.398378(     5)      4  120.000(    25)      3    0.000(    44)      0
      7      7  F        1   1.371400(     6)      2  120.000(    26)      3  180.000(    45)      0
      8      8  H        2   1.086551(     7)      3  120.000(    27)      4  180.000(    46)      0
      9      9  H        3   1.085336(     8)      4  120.000(    28)      5  180.000(    47)      0
     10     10  H        4   1.085757(     9)      5  120.000(    29)      6  180.000(    48)      0
     11     11  H        5   1.085396(    10)      6  120.000(    30)      1  180.000(    49)      0
     12     12  H        6   1.085609(    11)      1  120.000(    31)      2  180.000(    50)      0
     13     13  O        7   2.799357(    12)      1  179.900(    32)      3  180.000(    51)      0
     14     14  C       13   1.206938(    13)      1  179.900(    33)      2  180.000(    52)      0
     15     15  H       14   1.100466(    14)      1  120.000(    34)      2   90.000(    53)      0
     16     16  H       14   1.100460(    15)      1  120.000(    35)      2  -90.000(    54)      0
     17     17  H        7   2.226573(    16)      1  100.000(    36)      2   90.000(    55)      0
     18     18  F       17   0.923679(    17)      7  160.000(    37)      1    0.000(    56)      0
     19     19  H        7   2.247118(    18)      1  100.000(    38)      2  -30.000(    57)      0
     20     20  F       19   0.924151(    19)      7  160.000(    39)      1    0.000(    58)      0
     21     21  H        7   2.249740(    20)      1  100.000(    40)      2 -150.000(    59)      0
     22     22  F       21   0.924210(    21)      7  160.000(    41)      1    0.000(    60)      0
 ---------------------------------------------------------------------------------------------------
                         Z-Matrix orientation:                         
 ---------------------------------------------------------------------
 Center     Atomic      Atomic             Coordinates (Angstroms)
 Number     Number       Type             X           Y           Z
 ---------------------------------------------------------------------
      1          6           0        0.000000    0.000000    0.000000
      2          6           0        0.000000    0.000000    1.378505
      3          6           0        1.197683    0.000000    2.069987
      4          6           0        2.396417    0.000000    1.377897
      5          6           0        2.396417    0.000000   -0.017037
      6          6           0        1.185386    0.000000   -0.716226
      7          9           0       -1.187667   -0.000000   -0.685700
      8          1           0       -0.940981   -0.000000    1.921780
      9          1           0        1.197683   -0.000000    3.155323
     10          1           0        3.336710   -0.000000    1.920776
     11          1           0        3.336398   -0.000000   -0.559735
     12          1           0        1.163769   -0.000000   -1.801620
     13          8           0       -3.609535   -0.000000   -2.089608
     14          6           0       -4.653010   -0.000000   -2.696123
     15          1           0       -5.129095    0.953032   -2.971984
     16          1           0       -5.129092   -0.953026   -2.971983
     17          1           0       -1.522508    2.192746   -0.879020
     18          9           0       -1.383601    3.102393   -0.798823
     19          1           0       -2.483845   -1.106490    0.778930
     20          9           0       -2.738958   -1.561545    1.541752
     21          1           0       -0.566625   -1.107781   -2.542703
     22          9           0       -0.033524   -1.562866   -3.145086
 ---------------------------------------------------------------------
                    Distance matrix (angstroms):
                    1          2          3          4          5
     1  C    0.000000
     2  C    1.378505   0.000000
     3  C    2.391504   1.382965   0.000000
     4  C    2.764311   2.396417   1.384179   0.000000
     5  C    2.396478   2.773148   2.406789   1.394935   0.000000
     6  C    1.384962   2.406873   2.786240   2.419080   1.398378
     7  F    1.371400   2.381490   3.644682   4.135710   3.645925
     8  H    2.139786   1.086551   2.143793   3.381425   3.859694
     9  H    3.374983   2.142785   1.085336   2.143876   3.391288
    10  H    3.850067   3.380487   2.144225   1.085757   2.153897
    11  H    3.383024   3.858539   3.389623   2.153598   1.085396
    12  H    2.144806   3.386377   3.871756   3.410095   2.168907
    13  O    4.170756   5.005652   6.357010   6.935060   6.353504
    14  C    5.377693   6.184908   7.546284   8.141994   7.541347
    15  H    6.004046   6.792837   8.146033   8.744316   8.140842
    16  H    6.004043   6.792833   8.146030   8.744313   8.140839
    17  H    2.810488   3.496081   4.572113   5.025911   4.572649
    18  F    3.489600   4.034842   4.951559   5.352709   4.952229
    19  H    2.828523   2.784474   4.055218   5.039846   5.067035
    20  F    3.509603   3.157050   4.267856   5.370042   5.589304
    21  H    2.830827   4.113893   5.061311   5.037649   4.047936
    22  F    3.512156   4.786079   5.581703   5.366987   4.258152
                    6          7          8          9         10
     6  C    0.000000
     7  F    2.373250   0.000000
     8  H    3.388291   2.619123   0.000000
     9  H    3.871569   4.521433   2.468909   0.000000
    10  H    3.403230   5.221466   4.277691   2.469726   0.000000
    11  H    2.156697   4.525818   4.945087   4.286696   2.480511
    12  H    1.085609   2.602793   4.277112   4.957059   4.310209
    13  O    4.987730   2.799357   4.817926   7.114678   8.020817
    14  C    6.164970   4.006295   5.924879   8.274662   9.227750
    15  H    6.772694   4.655128   6.511336   8.858909   9.824318
    16  H    6.772690   4.655124   6.511332   8.858906   9.824314
    17  H    3.488169   2.226573   3.604274   5.336993   6.021544
    18  F    4.028816   3.110631   4.149992   5.650056   6.269162
    19  H    4.113766   2.247118   2.216045   4.519426   6.033821
    20  F    4.789297   3.131528   2.411548   4.532017   6.284570
    21  H    2.762741   2.249740   4.615077   6.066916   6.032069
    22  F    3.134909   3.134195   5.379513   6.607086   6.282037
                   11         12         13         14         15
    11  H    0.000000
    12  H    2.502517   0.000000
    13  O    7.112418   4.781984   0.000000
    14  C    8.270114   5.885156   1.206938   0.000000
    15  H    8.853913   6.471334   1.998979   1.100466   0.000000
    16  H    8.853910   6.471330   1.998974   1.100460   1.906058
    17  H    5.340322   3.588232   3.260267   4.232026   4.350271
    18  F    5.653352   4.137577   4.030601   4.890155   4.834367
    19  H    6.073844   4.603114   3.274142   4.243299   5.030738
    20  F    6.615483   5.371019   4.047605   4.905263   5.692949
    21  H    4.515853   2.184182   3.269828   4.236656   5.024675
    22  F    4.525811   2.383477   4.042825   4.897322   5.685468
                   16         17         18         19         20
    16  H    0.000000
    17  H    5.223392   0.000000
    18  F    5.932769   0.923679   0.000000
    19  H    4.592410   3.815485   4.627584   0.000000
    20  F    5.143621   4.629751   5.391438   0.924151   0.000000
    21  H    4.585230   3.817726   4.629701   3.835229   4.648409
    22  F    5.134850   4.632143   5.393728   4.648684   5.411638
                   21         22
    21  H    0.000000
    22  F    0.924210   0.000000
 Stoichiometry    C7H10F4O
 Framework group  C1[X(C7H10F4O)]
 Deg. of freedom    60
 Full point group                 C1      NOp   1
 Largest Abelian subgroup         C1      NOp   1
 Largest concise Abelian subgroup C1      NOp   1
                         Standard orientation:                         
 ---------------------------------------------------------------------
 Center     Atomic      Atomic             Coordinates (Angstroms)
 Number     Number       Type             X           Y           Z
 ---------------------------------------------------------------------
      1          6           0       -0.827309    0.004251    0.001699
      2          6           0       -1.516767    1.197950   -0.000336
      3          6           0       -2.899731    1.197711   -0.001312
      4          6           0       -3.591614   -0.001142   -0.000245
      5          6           0       -2.893939   -1.209069    0.001814
      6          6           0       -1.495562   -1.208827    0.002801
      7          9           0        0.544090    0.004488    0.002667
      8          1           0       -0.973653    2.139024   -0.001174
      9          1           0       -3.442561    2.137545   -0.002915
     10          1           0       -4.677371   -0.001330   -0.001012
     11          1           0       -3.436476   -2.149143    0.002651
     12          1           0       -0.933984   -2.137899    0.004403
     13          8           0        3.343443    0.000087    0.004648
     14          6           0        4.550377   -0.003225    0.005504
     15          1           0        5.099936   -0.002753    0.958924
     16          1           0        5.101279   -0.005226   -0.947132
     17          1           0        0.929183    0.007400    2.195683
     18          9           0        0.768146    0.008552    3.105216
     19          1           0        0.934749    1.919615   -1.106033
     20          9           0        0.774458    2.707175   -1.562224
     21          1           0        0.935866   -1.915613   -1.102348
     22          9           0        0.775835   -2.704460   -1.556523
 ---------------------------------------------------------------------
 Rotational constants (GHZ):           0.7676698           0.3969142           0.3710202
 Standard basis: 6-311++G(d,p) (5D, 7F)
 There are   346 symmetry adapted cartesian basis functions of A   symmetry.
 There are   334 symmetry adapted basis functions of A   symmetry.
   334 basis functions,   522 primitive gaussians,   346 cartesian basis functions
    48 alpha electrons       48 beta electrons
[...]
 Number     Number       Type             X           Y           Z
 ---------------------------------------------------------------------
      1          6           0       -0.794895    0.006848    0.015986
      2          6           0       -1.484129    1.199811    0.000332
      3          6           0       -2.867013    1.199347   -0.008570
      4          6           0       -3.560025   -0.001759   -0.001741
      5          6           0       -2.862465   -1.209133    0.014103
      6          6           0       -1.464435   -1.208664    0.023102
      7          9           0        0.593819    0.007314    0.024926
      8          1           0       -0.943022    2.137640   -0.005000
      9          1           0       -3.408427    2.136454   -0.020867
     10          1           0       -4.642909   -0.002122   -0.008712
     11          1           0       -3.403328   -2.146539    0.019432
     12          1           0       -0.904766   -2.134464    0.035410
     13          8           0        3.212447    0.003621    0.041825
     14          6           0        4.417382    0.000547    0.049614
     15          1           0        4.961496    0.008842    1.006187
     16          1           0        4.973776   -0.009078   -0.899867
     17          1           0        0.908627    0.024844    1.879994
     18          9           0        0.742134    0.033354    2.789879
     19          1           0        0.960522    1.768879   -1.011907
     20          9           0        0.802794    2.552533   -1.475283
     21          1           0        0.965870   -1.794425   -0.990541
     22          9           0        0.808594   -2.586642   -1.439042
 ---------------------------------------------------------------------
 Rotational constants (GHZ):           0.8691904           0.4264359           0.3904275

 **********************************************************************

            Population analysis using the SCF Density.

 **********************************************************************

 Orbital symmetries:
       Occupied  (A) (A) (A) (A) (A) (A) (A) (A) (A) (A) (A) (A)
                 (A) (A) (A) (A) (A) (A) (A) (A) (A) (A) (A) (A)
                 (A) (A) (A) (A) (A) (A) (A) (A) (A) (A) (A) (A)
                 (A) (A) (A) (A) (A) (A) (A) (A) (A) (A) (A) (A)
       Virtual   (A) (A) (A) (A) (A) (A) (A) (A) (A) (A) (A) (A)
                 (A) (A) (A) (A) (A) (A) (A) (A) (A) (A) (A) (A)
                 (A) (A) (A) (A) (A) (A) (A) (A) (A) (A) (A) (A)
                 (A) (A) (A) (A) (A) (A) (A) (A) (A) (A) (A) (A)
                 (A) (A) (A) (A) (A) (A) (A) (A) (A) (A) (A) (A)
                 (A) (A) (A) (A) (A) (A) (A) (A) (A) (A) (A) (A)
                 (A) (A) (A) (A) (A) (A) (A) (A) (A) (A) (A) (A)
                 (A) (A) (A) (A) (A) (A) (A) (A) (A) (A) (A) (A)
                 (A) (A) (A) (A) (A) (A) (A) (A) (A) (A) (A) (A)
                 (A) (A) (A) (A) (A) (A) (A) (A) (A) (A) (A) (A)
                 (A) (A) (A) (A) (A) (A) (A) (A) (A) (A) (A) (A)
                 (A) (A) (A) (A) (A) (A) (A) (A) (A) (A) (A) (A)
                 (A) (A) (A) (A) (A) (A) (A) (A) (A) (A) (A) (A)
                 (A) (A) (A) (A) (A) (A) (A) (A) (A) (A) (A) (A)
                 (A) (A) (A) (A) (A) (A) (A) (A) (A) (A) (A) (A)
                 (A) (A) (A) (A) (A) (A) (A) (A) (A) (A) (A) (A)
                 (A) (A) (A) (A) (A) (A) (A) (A) (A) (A) (A) (A)
                 (A) (A) (A) (A) (A) (A) (A) (A) (A) (A) (A) (A)
                 (A) (A) (A) (A) (A) (A) (A) (A) (A) (A) (A) (A)
                 (A) (A) (A) (A) (A) (A) (A) (A) (A) (A) (A) (A)
                 (A) (A) (A) (A) (A) (A) (A) (A) (A) (A) (A) (A)
                 (A) (A) (A) (A) (A) (A) (A) (A) (A) (A) (A) (A)
                 (A) (A) (A) (A) (A) (A) (A) (A) (A) (A) (A) (A)
                 (A) (A) (A) (A) (A) (A) (A) (A) (A)
 The electronic state is 1-A.
 Alpha  occ. eigenvalues --  -25.30549 -25.23805 -25.23750 -25.23030 -19.64982
 Alpha  occ. eigenvalues --  -10.65361 -10.64297 -10.57050 -10.56790 -10.56711
 Alpha  occ. eigenvalues --  -10.56463 -10.55969  -1.41347  -1.34906  -1.34845
 Alpha  occ. eigenvalues --   -1.34069  -1.19647  -0.99136  -0.87308  -0.87126
 Alpha  occ. eigenvalues --   -0.73315  -0.73131  -0.72265  -0.65924  -0.65494
 Alpha  occ. eigenvalues --   -0.65094  -0.64465  -0.60293  -0.59876  -0.59257
 Alpha  occ. eigenvalues --   -0.58657  -0.54450  -0.53599  -0.53199  -0.52160
 Alpha  occ. eigenvalues --   -0.52108  -0.51928  -0.51563  -0.51432  -0.51402
 Alpha  occ. eigenvalues --   -0.50290  -0.48173  -0.45999  -0.44649  -0.42574
 Alpha  occ. eigenvalues --   -0.35305  -0.33256  -0.32870
 Alpha virt. eigenvalues --   -0.01193  -0.00554  -0.00263   0.00353   0.00637
 Alpha virt. eigenvalues --    0.01251   0.01963   0.02056   0.03098   0.03415
 Alpha virt. eigenvalues --    0.04731   0.05712   0.06088   0.06883   0.07716
 Alpha virt. eigenvalues --    0.08436   0.09156   0.10020   0.10646   0.11352
 Alpha virt. eigenvalues --    0.11621   0.12125   0.12515   0.12823   0.13230
 Alpha virt. eigenvalues --    0.13612   0.13843   0.14166   0.14305   0.14990
 Alpha virt. eigenvalues --    0.15407   0.16038   0.17023   0.17475   0.17667
 Alpha virt. eigenvalues --    0.18227   0.18938   0.19884   0.19938   0.20641
 Alpha virt. eigenvalues --    0.20721   0.21158   0.21802   0.22255   0.24528
 Alpha virt. eigenvalues --    0.25551   0.26403   0.26866   0.27552   0.28673
 Alpha virt. eigenvalues --    0.28874   0.29383   0.29895   0.29969   0.31604
 Alpha virt. eigenvalues --    0.31711   0.32266   0.33882   0.34220   0.34889
 Alpha virt. eigenvalues --    0.35727   0.35936   0.37448   0.37737   0.38135
 Alpha virt. eigenvalues --    0.38714   0.38750   0.39752   0.40576   0.42197
 Alpha virt. eigenvalues --    0.42475   0.44409   0.44866   0.46323   0.46777
 Alpha virt. eigenvalues --    0.50209   0.51908   0.53569   0.54799   0.56582
 Alpha virt. eigenvalues --    0.57134   0.57662   0.58345   0.58811   0.59616
 Alpha virt. eigenvalues --    0.60427   0.60952   0.61267   0.62535   0.62643
 Alpha virt. eigenvalues --    0.63970   0.65849   0.66283   0.67405   0.67628
 Alpha virt. eigenvalues --    0.69854   0.73411   0.74582   0.74992   0.76155
 Alpha virt. eigenvalues --    0.76251   0.77578   0.80109   0.81445   0.84024
 Alpha virt. eigenvalues --    0.87333   0.87524   0.89099   0.91154   0.92437
 Alpha virt. eigenvalues --    0.94201   0.94351   1.01621   1.03263   1.04333
 Alpha virt. eigenvalues --    1.05253   1.06098   1.06494   1.06774   1.13157
 Alpha virt. eigenvalues --    1.15099   1.16835   1.17956   1.19756   1.21906
 Alpha virt. eigenvalues --    1.23435   1.30970   1.31276   1.33056   1.34157
 Alpha virt. eigenvalues --    1.35170   1.36275   1.36755   1.37543   1.38546
 Alpha virt. eigenvalues --    1.42283   1.42674   1.45216   1.46160   1.47011
 Alpha virt. eigenvalues --    1.48978   1.50072   1.52279   1.52860   1.53575
 Alpha virt. eigenvalues --    1.55229   1.55607   1.56628   1.58829   1.59517
 Alpha virt. eigenvalues --    1.59967   1.60700   1.60907   1.62389   1.65064
 Alpha virt. eigenvalues --    1.67108   1.68807   1.69398   1.70883   1.72316
 Alpha virt. eigenvalues --    1.75416   1.77099   1.77653   1.78601   1.81359
 Alpha virt. eigenvalues --    1.86039   1.87619   1.89843   1.91091   1.93641
 Alpha virt. eigenvalues --    1.93918   1.94200   1.94761   1.96908   1.97923
 Alpha virt. eigenvalues --    2.01115   2.01636   2.03418   2.05536   2.08791
 Alpha virt. eigenvalues --    2.09562   2.10767   2.14955   2.17653   2.25230
 Alpha virt. eigenvalues --    2.25974   2.29928   2.31331   2.34689   2.38266
 Alpha virt. eigenvalues --    2.43909   2.44464   2.47436   2.49005   2.51934
 Alpha virt. eigenvalues --    2.52615   2.53678   2.57889   2.61018   2.62289
 Alpha virt. eigenvalues --    2.65418   2.66883   2.70161   2.71537   2.72634
 Alpha virt. eigenvalues --    2.72831   2.74251   2.75800   2.76086   2.76497
 Alpha virt. eigenvalues --    2.84343   2.85231   2.85338   2.88413   2.93907
 Alpha virt. eigenvalues --    2.94898   2.95189   2.98088   3.00031   3.13988
 Alpha virt. eigenvalues --    3.19770   3.23048   3.38460   3.39272   3.42580
 Alpha virt. eigenvalues --    3.48028   3.53075   3.55317   3.56129   3.66046
 Alpha virt. eigenvalues --    3.74570   3.78000   3.85178   3.88709   3.88940
 Alpha virt. eigenvalues --    3.89048   3.89207   3.89590   3.89682   3.91124
 Alpha virt. eigenvalues --    4.00159   4.02734   4.07672   4.08748   4.11503
 Alpha virt. eigenvalues --    4.12129   4.12996   4.13131   4.14085   4.14289
 Alpha virt. eigenvalues --    4.16037   4.18159   4.20721   4.85146   4.88046
 Alpha virt. eigenvalues --    4.88655   4.89968   4.90346   5.11768   5.21348
 Alpha virt. eigenvalues --    5.81342   6.42229   6.43384   6.43596   6.47593
 Alpha virt. eigenvalues --    6.49664   6.50234   6.50570   6.55326   6.85255
 Alpha virt. eigenvalues --    6.86478   6.87901   6.90834  23.68738  23.99897
 Alpha virt. eigenvalues --   24.01123  24.04695  24.15017  24.16585  24.26977
 Alpha virt. eigenvalues --   50.05838  66.90845  66.90999  66.91422  66.93499
          Condensed to atoms (all electrons):
               1          2          3          4          5          6
     1  C   15.661143  -1.849017  -2.975363  -0.947223  -2.492237  -1.204209
     2  C   -1.849017  15.471156   2.233104  -0.716196  -1.057960  -8.239942
     3  C   -2.975363   2.233104   7.656944   0.834723  -0.448440  -1.391168
     4  C   -0.947223  -0.716196   0.834723   6.432818   0.759857  -0.563670
     5  C   -2.492237  -1.057960  -0.448440   0.759857   7.261118   1.890507
     6  C   -1.204209  -8.239942  -1.391168  -0.563670   1.890507  15.325993
     7  F    0.285560  -0.205626  -0.018969   0.018841  -0.017276  -0.195210
     8  H   -0.182234   0.461674   0.009879  -0.003099   0.031705  -0.024202
     9  H    0.003091  -0.036428   0.401993  -0.055626  -0.004502   0.025112
    10  H    0.024919  -0.016461  -0.063166   0.459946  -0.061339  -0.012302
    11  H    0.007582   0.029148  -0.004972  -0.057213   0.399433  -0.041214
    12  H   -0.194966  -0.039708   0.029395   0.002185   0.014009   0.480552
    13  O    0.018414  -0.011554   0.000102   0.000358   0.000294  -0.009542
    14  C   -0.002834  -0.000450   0.000937   0.000244   0.000956   0.000256
    15  H   -0.000349   0.000195   0.000047  -0.000091   0.000046   0.000237
    16  H    0.000316  -0.000091  -0.000042   0.000036  -0.000034  -0.000054
    17  H    0.018248  -0.003615  -0.006255  -0.002223  -0.006075  -0.008954
    18  F    0.224704  -0.066120  -0.026428   0.003163  -0.024680  -0.064981
    19  H   -0.042146   0.049130   0.016762   0.006908  -0.006810  -0.020485
    20  F   -0.056870   0.079890   0.012276  -0.003066   0.002103  -0.025120
    21  H   -0.042059  -0.020590  -0.007278   0.006650   0.016043   0.051397
    22  F   -0.051510  -0.023738   0.001803  -0.002886   0.008470   0.075918
               7          8          9         10         11         12
     1  C    0.285560  -0.182234   0.003091   0.024919   0.007582  -0.194966
     2  C   -0.205626   0.461674  -0.036428  -0.016461   0.029148  -0.039708
     3  C   -0.018969   0.009879   0.401993  -0.063166  -0.004972   0.029395
     4  C    0.018841  -0.003099  -0.055626   0.459946  -0.057213   0.002185
     5  C   -0.017276   0.031705  -0.004502  -0.061339   0.399433   0.014009
     6  C   -0.195210  -0.024202   0.025112  -0.012302  -0.041214   0.480552
     7  F    9.249464  -0.002270  -0.001618   0.000714  -0.001660  -0.002327
     8  H   -0.002270   0.507269  -0.009934   0.000888   0.000858   0.000968
     9  H   -0.001618  -0.009934   0.441344  -0.008253   0.000756   0.000794
    10  H    0.000714   0.000888  -0.008253   0.462560  -0.007977   0.000874
    11  H   -0.001660   0.000858   0.000756  -0.007977   0.440453  -0.009600
    12  H   -0.002327   0.000968   0.000794   0.000874  -0.009600   0.509743
    13  O    0.009291  -0.000603  -0.000002   0.000009  -0.000003  -0.000665
    14  C    0.001114   0.000379  -0.000017   0.000008  -0.000017   0.000392
    15  H   -0.000609   0.000164   0.000002  -0.000001   0.000002   0.000175
    16  H   -0.000297  -0.000055  -0.000002  -0.000000  -0.000002  -0.000057
    17  H    0.035992  -0.003674   0.000452  -0.000197   0.000459  -0.003837
    18  F   -0.015837   0.001789  -0.000641   0.000144  -0.000630   0.001624
    19  H    0.019861  -0.011074   0.000844   0.000058  -0.000271   0.001579
    20  F   -0.006109   0.006714  -0.001229  -0.000089   0.000184  -0.000858
    21  H    0.019025   0.001584  -0.000278   0.000060   0.000863  -0.011231
    22  F   -0.005572  -0.000853   0.000186  -0.000085  -0.001308   0.007392
              13         14         15         16         17         18
     1  C    0.018414  -0.002834  -0.000349   0.000316   0.018248   0.224704
     2  C   -0.011554  -0.000450   0.000195  -0.000091  -0.003615  -0.066120
     3  C    0.000102   0.000937   0.000047  -0.000042  -0.006255  -0.026428
     4  C    0.000358   0.000244  -0.000091   0.000036  -0.002223   0.003163
     5  C    0.000294   0.000956   0.000046  -0.000034  -0.006075  -0.024680
     6  C   -0.009542   0.000256   0.000237  -0.000054  -0.008954  -0.064981
     7  F    0.009291   0.001114  -0.000609  -0.000297   0.035992  -0.015837
     8  H   -0.000603   0.000379   0.000164  -0.000055  -0.003674   0.001789
     9  H   -0.000002  -0.000017   0.000002  -0.000002   0.000452  -0.000641
    10  H    0.000009   0.000008  -0.000001  -0.000000  -0.000197   0.000144
    11  H   -0.000003  -0.000017   0.000002  -0.000002   0.000459  -0.000630
    12  H   -0.000665   0.000392   0.000175  -0.000057  -0.003837   0.001624
    13  O    8.210304   0.237203  -0.090116  -0.089427   0.008680  -0.000794
    14  C    0.237203   4.912310   0.415659   0.413744  -0.002353  -0.000188
    15  H   -0.090116   0.415659   0.618265  -0.083918  -0.000144   0.000154
    16  H   -0.089427   0.413744  -0.083918   0.616428  -0.000148  -0.000045
    17  H    0.008680  -0.002353  -0.000144  -0.000148   0.367052   0.318124
    18  F   -0.000794  -0.000188   0.000154  -0.000045   0.318124   8.929778
    19  H    0.008656  -0.000844  -0.000280  -0.000349   0.003492  -0.002519
    20  F   -0.000941   0.000420  -0.000042  -0.000104  -0.002124   0.000508
    21  H    0.008583  -0.000791  -0.000266  -0.000362   0.003460  -0.002407
    22  F   -0.000947   0.000420  -0.000044  -0.000106  -0.002053   0.000492
              19         20         21         22
     1  C   -0.042146  -0.056870  -0.042059  -0.051510
     2  C    0.049130   0.079890  -0.020590  -0.023738
     3  C    0.016762   0.012276  -0.007278   0.001803
     4  C    0.006908  -0.003066   0.006650  -0.002886
     5  C   -0.006810   0.002103   0.016043   0.008470
     6  C   -0.020485  -0.025120   0.051397   0.075918
     7  F    0.019861  -0.006109   0.019025  -0.005572
     8  H   -0.011074   0.006714   0.001584  -0.000853
     9  H    0.000844  -0.001229  -0.000278   0.000186
    10  H    0.000058  -0.000089   0.000060  -0.000085
    11  H   -0.000271   0.000184   0.000863  -0.001308
    12  H    0.001579  -0.000858  -0.011231   0.007392
    13  O    0.008656  -0.000941   0.008583  -0.000947
    14  C   -0.000844   0.000420  -0.000791   0.000420
    15  H   -0.000280  -0.000042  -0.000266  -0.000044
    16  H   -0.000349  -0.000104  -0.000362  -0.000106
    17  H    0.003492  -0.002124   0.003460  -0.002053
    18  F   -0.002519   0.000508  -0.002407   0.000492
    19  H    0.403821   0.320134   0.000822  -0.001293
    20  F    0.320134   8.933505  -0.001300   0.000547
    21  H    0.000822  -0.001300   0.403598   0.320157
    22  F   -0.001293   0.000547   0.320157   8.932818
 Mulliken charges:
               1
     1  C   -0.202960
     2  C   -0.036803
     3  C   -0.255885
     4  C   -0.174436
     5  C   -0.265187
     6  C   -0.048919
     7  F   -0.166485
     8  H    0.214128
     9  H    0.243957
    10  H    0.219692
    11  H    0.245129
    12  H    0.213568
    13  O   -0.297300
    14  C    0.023451
    15  H    0.140913
    16  H    0.144569
    17  H    0.285691
    18  F   -0.275209
    19  H    0.254003
    20  F   -0.258431
    21  H    0.254319
    22  F   -0.257806
 Sum of Mulliken charges =  -0.00000
 Mulliken charges with hydrogens summed into heavy atoms:
               1
     1  C   -0.202960
     2  C    0.177325
     3  C   -0.011927
     4  C    0.045256
     5  C   -0.020058
     6  C    0.164650
     7  F   -0.166485
    13  O   -0.297300
    14  C    0.308934
    18  F    0.010481
    20  F   -0.004428
    22  F   -0.003488
 Electronic spatial extent (au):  <R**2>=           3061.3997
 Charge=             -0.0000 electrons
 Dipole moment (field-independent basis, Debye):
    X=              0.9126    Y=             -0.0061    Z=             -0.1486  Tot=              0.9247
 Quadrupole moment (field-independent basis, Debye-Ang):
   XX=            -33.0990   YY=            -76.4921   ZZ=            -86.9943
   XY=             -0.1224   XZ=              0.3155   YZ=             -0.1293
 Traceless Quadrupole moment (field-independent basis, Debye-Ang):
   XX=             32.4294   YY=            -10.9636   ZZ=            -21.4658
   XY=             -0.1224   XZ=              0.3155   YZ=             -0.1293
 Octapole moment (field-independent basis, Debye-Ang**2):
  XXX=            131.6557  YYY=              0.9399  ZZZ=            -23.4953  XYY=            -11.9960
  XXY=              0.2088  XXZ=              0.9718  XZZ=             17.3023  YZZ=             -0.5637
  YYZ=             25.8304  XYZ=              0.2396
 Hexadecapole moment (field-independent basis, Debye-Ang**3):
 XXXX=          -1544.0133 YYYY=           -840.5184 ZZZZ=           -588.4619 XXXY=             -0.8644
 XXXZ=              7.1167 YYYX=              0.2074 YYYZ=             -0.7201 ZZZX=            -16.2277
 ZZZY=              0.1559 XXYY=           -503.0855 XXZZ=           -512.7456 YYZZ=           -254.6201
 XXYZ=             -0.4641 YYXZ=             20.0560 ZZXY=             -0.7197
 N-N= 7.021492158248D+02 E-N=-3.168629529703D+03  KE= 7.450255361549D+02
 1\1\GINC-LOCALHOST\POpt\RM062X\6-311++G(d,p)\C7H10F4O1\LYWU\06-Jan-202
 5\1\\# m062x 6-311++G(d,p) opt=z-matrix scrf=(solvent=dichloroethane)\
 \test\\0,1\C\C,1,d1\C,2,d2,1,120.\C,3,d3,2,120.,1,0.,0\C,4,d4,3,120.,2
 ,0.,0\C,5,d5,4,120.,3,0.,0\F,1,d6,2,120.,3,180.,0\H,2,d7,3,120.,4,180.
 ,0\H,3,d8,4,120.,5,180.,0\H,4,d9,5,120.,6,180.,0\H,5,d10,6,120.,1,180.
 ,0\H,6,d11,1,120.,2,180.,0\O,7,d12,1,179.9,3,180.,0\C,13,d13,1,179.9,2
 ,180.,0\H,14,d14,1,120.,2,90.,0\H,14,d15,1,120.,2,-90.,0\H,7,d16,1,100
 .,2,90.,0\F,17,d17,7,160.,1,0.,0\H,7,d18,1,100.,2,-30.,0\F,19,d19,7,16
 0.,1,0.,0\H,7,d20,1,100.,2,-150.,0\F,21,d21,7,160.,1,0.,0\\d1=1.377841
 45\d2=1.3829129\d3=1.38671136\d4=1.3944862\d5=1.39805869\d6=1.38874248
 \d7=1.08275034\d8=1.08233482\d9=1.08290617\d10=1.0822624\d11=1.0818898
 4\d12=2.61868551\d13=1.20496399\d14=1.10052834\d15=1.10053623\d16=1.88
 167194\d17=0.92503188\d18=2.0766815\d19=0.92396345\d20=2.10139403\d21=
 0.92384899\\Version=ES64L-G16RevB.01\State=1-A\HF=-747.2910203\RMSD=9.
 791e-09\RMSF=4.379e-03\Dipole=-0.3096416,-0.0608131,-0.1810332\Quadrup
 ole=15.9578381,-15.9617897,0.0039516,0.0321433,14.0208593,-0.0069477\P
 G=C01 [X(C7H10F4O1)]\\@


 CLIMB THE MOUNTAINS AND GET THEIR GOOD TIDINGS.
 NATURE'S PEACE WILL FLOW INTO YOU AS SUNSHINE FLOWS INTO TREES.
 THE WINDS WILL BLOW THEIR OWN FRESHNESS INTO YOU, 
 AND CARES WILL DROP OFF LIKE AUTUMN LEAVES.

                                         -- JOHN MUIR
 Job cpu time:       0 days  1 hours 38 minutes 21.1 seconds.
 Elapsed time:       0 days  0 hours 49 minutes 17.5 seconds.
 File lengths (MBytes):  RWF=    236 Int=      0 D2E=      0 Chk=     12 Scr=      1
 Normal termination of Gaussian 16 at Mon Jan  6 19:32:01 2025.
