 Entering Gaussian System, Link 0=g16
 Input=model_H1.gjf
 Output=model_H1.log
 Initial command:
 /home/zjxu/prog/g16/l1.exe "/home/zjxu/zjhan/5_model/amide/water/Gau-54098.inp" -scrdir="/home/zjxu/zjhan/5_model/amide/water/"
 Entering Link 1 = /home/zjxu/prog/g16/l1.exe PID=     54099.
  
 Copyright (c) 1988-2017, Gaussian, Inc.  All Rights Reserved.
  
 This is part of the Gaussian(R) 16 program.  It is based on
 the Gaussian(R) 09 system (copyright 2009, Gaussian, Inc.),
 the Gaussian(R) 03 system (copyright 2003, Gaussian, Inc.),
 the Gaussian(R) 98 system (copyright 1998, Gaussian, Inc.),
 the Gaussian(R) 94 system (copyright 1995, Gaussian, Inc.),
 the Gaussian 92(TM) system (copyright 1992, Gaussian, Inc.),
 the Gaussian 90(TM) system (copyright 1990, Gaussian, Inc.),
 the Gaussian 88(TM) system (copyright 1988, Gaussian, Inc.),
 the Gaussian 86(TM) system (copyright 1986, Carnegie Mellon
 University), and the Gaussian 82(TM) system (copyright 1983,
 Carnegie Mellon University). Gaussian is a federally registered
 trademark of Gaussian, Inc.
  
 This software contains proprietary and confidential information,
 including trade secrets, belonging to Gaussian, Inc.
  
 This software is provided under written license and may be
 used, copied, transmitted, or stored only in accord with that
 written license.
  
 The following legend is applicable only to US Government
 contracts under FAR:
  
                    RESTRICTED RIGHTS LEGEND
  
 Use, reproduction and disclosure by the US Government is
 subject to restrictions as set forth in subparagraphs (a)
 and (c) of the Commercial Computer Software - Restricted
 Rights clause in FAR 52.227-19.
  
 Gaussian, Inc.
 340 Quinnipiac St., Bldg. 40, Wallingford CT 06492
  
  
 ---------------------------------------------------------------
 Warning -- This program may not be used in any manner that
 competes with the business of Gaussian, Inc. or will provide
 assistance to any competitor of Gaussian, Inc.  The licensee
 of this program is prohibited from giving any competitor of
 Gaussian, Inc. access to this program.  By using this program,
 the user acknowledges that Gaussian, Inc. is engaged in the
 business of creating and licensing software in the field of
 computational chemistry and represents and warrants to the
 licensee that it is not a competitor of Gaussian, Inc. and that
 it will not use this program in any manner prohibited above.
 ---------------------------------------------------------------
  

 Cite this work as:
 Gaussian 16, Revision B.01,
 M. J. Frisch, G. W. Trucks, H. B. Schlegel, G. E. Scuseria, 
 M. A. Robb, J. R. Cheeseman, G. Scalmani, V. Barone, 
 G. A. Petersson, H. Nakatsuji, X. Li, M. Caricato, A. V. Marenich, 
 J. Bloino, B. G. Janesko, R. Gomperts, B. Mennucci, H. P. Hratchian, 
 J. V. Ortiz, A. F. Izmaylov, J. L. Sonnenberg, D. Williams-Young, 
 F. Ding, F. Lipparini, F. Egidi, J. Goings, B. Peng, A. Petrone, 
 T. Henderson, D. Ranasinghe, V. G. Zakrzewski, J. Gao, N. Rega, 
 G. Zheng, W. Liang, M. Hada, M. Ehara, K. Toyota, R. Fukuda, 
 J. Hasegawa, M. Ishida, T. Nakajima, Y. Honda, O. Kitao, H. Nakai, 
 T. Vreven, K. Throssell, J. A. Montgomery, Jr., J. E. Peralta, 
 F. Ogliaro, M. J. Bearpark, J. J. Heyd, E. N. Brothers, K. N. Kudin, 
 V. N. Staroverov, T. A. Keith, R. Kobayashi, J. Normand, 
 K. Raghavachari, A. P. Rendell, J. C. Burant, S. S. Iyengar, 
 J. Tomasi, M. Cossi, J. M. Millam, M. Klene, C. Adamo, R. Cammi, 
 J. W. Ochterski, R. L. Martin, K. Morokuma, O. Farkas, 
 J. B. Foresman, and D. J. Fox, Gaussian, Inc., Wallingford CT, 2016.
 
 ******************************************
 Gaussian 16:  ES64L-G16RevB.01 20-Dec-2017
                28-Mar-2024 
 ******************************************
 %mem=2GB
 %nprocshared=2
 Will use up to    2 processors via shared memory.
 %chk=model_H1.chk
 -------------------------------------------------------
 # opt=z-matrix 6-311++g(d,p) m062x scrf=(solvent=water)
 -------------------------------------------------------
 1/10=7,18=40,26=3,38=1/1,3;
 2/12=2,17=6,18=5,29=3,40=1/2;
 3/5=4,6=6,7=1111,11=2,25=1,30=1,70=2201,71=1,72=1,74=-55/1,2,3;
 4//1;
 5/5=2,38=5,53=1/2;
 6/7=2,8=2,9=2,10=2,28=1/1;
 7/29=1/1,2,3,16;
 1/10=7,18=40,26=3/3(2);
 2/29=3/2;
 99//99;
 2/29=3/2;
 3/5=4,6=6,7=1111,11=2,25=1,30=1,70=2205,71=1,72=1,74=-55/1,2,3;
 4/5=5,16=3,69=1/1;
 5/5=2,38=5,53=1/2;
 7//1,2,3,16;
 1/18=40,26=3/3(-5);
 2/29=3/2;
 6/7=2,8=2,9=2,10=2,19=2,28=1/1;
 99/9=1/99;
 ----
 test
 ----
 Symbolic Z-matrix:
 Charge =  0 Multiplicity = 1
 C
 C                    1    B1
 C                    2    B2       1     120. 
 C                    3    B3       2     120.     1     0.       0
 C                    4    B4       3     120.     2     0.       0
 C                    1    B5       2     119.97771  3     1.71723  0
 F                    1    B6       2     120.     3    -180.     0
 H                    2    B7       1     120.     6    -178.28277  0
 H                    3    B8       2     120.     1     180.     0
 H                    4    B9       3     120.     2     180.     0
 H                    5    B10      4     120.     3     180.     0
 H                    6    B11      1     119.91553  2    -177.77152  0
 O                    1    B12      2     120.     3    -180.     0
 C                    13   B13      1     179.9    2     180.     0
 H                    14   B14      13    119.99997  1    -90.0449  0
 H                    14   B15      13    119.99997  1     90.0449  0
 H                    7    B16      1     100.     2     90.      0
 N                    17   B17      7     179.9    1     90.      0
 C                    18   B18      17    119.5    7     0.       0
 O                    19   B19      18    123.2    17   -180.     0
 C                    18   B20      17    121.9    19   -180.     0
 H                    21   B21      18    110.7    17   -180.     0
 H                    21   B22      18    110.7    17   -60.      0
 H                    21   B23      18    110.7    17    60.      0
 H                    19   B24      18    113.46722  17    0.       0
       Variables:
  B1                    1.3                      
  B2                    1.3                      
  B3                    1.3                      
  B4                    1.3                      
  B5                    1.3                      
  B6                    1.4                      
  B7                    1.                       
  B8                    1.                       
  B9                    1.                       
  B10                   1.                       
  B11                   1.00101                  
  B12                   4.2                      
  B13                   1.2                      
  B14                   1.                       
  B15                   1.                       
  B16                   2.12                     
  B17                   1.                       
  B18                   1.33                     
  B19                   1.23                     
  B20                   1.45                     
  B21                   1.                       
  B22                   1.                       
  B23                   1.                       
  B24                   1.                       
 

 GradGradGradGradGradGradGradGradGradGradGradGradGradGradGradGradGradGrad
 Berny optimization.
 Initialization pass.
                       ----------------------------
                       !    Initial Parameters    !
                       ! (Angstroms and Degrees)  !
 ----------------------                            ----------------------
 !      Name          Value   Derivative information (Atomic Units)     !
 ------------------------------------------------------------------------
 !       B1          1.3      estimate D2E/DX2                          !
 !       B2          1.3      estimate D2E/DX2                          !
 !       B3          1.3      estimate D2E/DX2                          !
 !       B4          1.3      estimate D2E/DX2                          !
 !       B5          1.3      estimate D2E/DX2                          !
 !       B6          1.4      estimate D2E/DX2                          !
 !       B7          1.0      estimate D2E/DX2                          !
 !       B8          1.0      estimate D2E/DX2                          !
 !       B9          1.0      estimate D2E/DX2                          !
 !       B10         1.0      estimate D2E/DX2                          !
 !       B11         1.001    estimate D2E/DX2                          !
 !       B12         4.2      estimate D2E/DX2                          !
 !       B13         1.2      estimate D2E/DX2                          !
 !       B14         1.0      estimate D2E/DX2                          !
 !       B15         1.0      estimate D2E/DX2                          !
 !       B16         2.12     estimate D2E/DX2                          !
 !       B17         1.0      estimate D2E/DX2                          !
 !       B18         1.33     estimate D2E/DX2                          !
 !       B19         1.23     estimate D2E/DX2                          !
 !       B20         1.45     estimate D2E/DX2                          !
 !       B21         1.0      estimate D2E/DX2                          !
 !       B22         1.0      estimate D2E/DX2                          !
 !       B23         1.0      estimate D2E/DX2                          !
 !       B24         1.0      estimate D2E/DX2                          !
 ------------------------------------------------------------------------
 Trust Radius=3.00D-01 FncErr=1.00D-07 GrdErr=1.00D-06 EigMax=2.50D+02 EigMin=1.00D-04
 Number of steps in this run=     34 maximum allowed number of steps=    100.
 GradGradGradGradGradGradGradGradGradGradGradGradGradGradGradGradGradGrad

 ---------------------------------------------------------------------------------------------------
                            Z-MATRIX (ANGSTROMS AND DEGREES)
   CD    Cent   Atom    N1       Length/X        N2       Alpha/Y        N3        Beta/Z          J
 ---------------------------------------------------------------------------------------------------
      1      1  C 
      2      2  C        1   1.300000(     1)
      3      3  C        2   1.300000(     2)      1  120.000(    25)
      4      4  C        3   1.300000(     3)      2  120.000(    26)      1    0.000(    48)      0
      5      5  C        4   1.300000(     4)      3  120.000(    27)      2    0.000(    49)      0
      6      6  C        1   1.300000(     5)      2  119.978(    28)      3    1.717(    50)      0
      7      7  F        1   1.400000(     6)      2  120.000(    29)      3 -180.000(    51)      0
      8      8  H        2   1.000000(     7)      1  120.000(    30)      6 -178.283(    52)      0
      9      9  H        3   1.000000(     8)      2  120.000(    31)      1  180.000(    53)      0
     10     10  H        4   1.000000(     9)      3  120.000(    32)      2  180.000(    54)      0
     11     11  H        5   1.000000(    10)      4  120.000(    33)      3  180.000(    55)      0
     12     12  H        6   1.001007(    11)      1  119.916(    34)      2 -177.772(    56)      0
     13     13  O        1   4.200000(    12)      2  120.000(    35)      3 -180.000(    57)      0
     14     14  C       13   1.200000(    13)      1  179.900(    36)      2  180.000(    58)      0
     15     15  H       14   1.000000(    14)     13  120.000(    37)      1  -90.045(    59)      0
     16     16  H       14   1.000000(    15)     13  120.000(    38)      1   90.045(    60)      0
     17     17  H        7   2.120000(    16)      1  100.000(    39)      2   90.000(    61)      0
     18     18  N       17   1.000000(    17)      7  179.900(    40)      1   90.000(    62)      0
     19     19  C       18   1.330000(    18)     17  119.500(    41)      7    0.000(    63)      0
     20     20  O       19   1.230000(    19)     18  123.200(    42)     17 -180.000(    64)      0
     21     21  C       18   1.450000(    20)     17  121.900(    43)     19 -180.000(    65)      0
     22     22  H       21   1.000000(    21)     18  110.700(    44)     17 -180.000(    66)      0
     23     23  H       21   1.000000(    22)     18  110.700(    45)     17  -60.000(    67)      0
     24     24  H       21   1.000000(    23)     18  110.700(    46)     17   60.000(    68)      0
     25     25  H       19   1.000000(    24)     18  113.467(    47)     17    0.000(    69)      0
 ---------------------------------------------------------------------------------------------------
                         Z-Matrix orientation:                         
 ---------------------------------------------------------------------
 Center     Atomic      Atomic             Coordinates (Angstroms)
 Number     Number       Type             X           Y           Z
 ---------------------------------------------------------------------
      1          6           0        0.000000    0.000000    0.000000
      2          6           0        0.000000    0.000000    1.300000
      3          6           0        1.125833    0.000000    1.950000
      4          6           0        2.251666    0.000000    1.300000
      5          6           0        2.251666    0.000000    0.000000
      6          6           0        1.125580   -0.033745   -0.649562
      7          9           0       -1.212436    0.000000   -0.700000
      8          1           0       -0.866025    0.000000    1.800000
      9          1           0        1.125833    0.000000    2.950000
     10          1           0        3.117691    0.000000    1.800000
     11          1           0        3.117691    0.000000   -0.500000
     12          1           0        1.125833   -0.000000   -1.650000
     13          8           0       -3.637307    0.000000   -2.100000
     14          6           0       -4.675488    0.000000   -2.701813
     15          1           0       -5.108404    0.866025   -2.951981
     16          1           0       -5.108404   -0.866025   -2.951981
     17          1           0       -1.531249    2.087792   -0.884067
     18          7           0       -1.680760    3.072599   -0.972403
     19          6           0       -1.199589    3.715582   -2.032566
     20          8           0       -1.343395    4.924232   -2.209721
     21          6           0       -2.411147    3.829308    0.025809
     22          1           0       -2.460643    4.795025   -0.229027
     23          1           0       -3.344400    3.482475    0.119330
     24          1           0       -1.962551    3.763826    0.917141
     25          1           0       -0.710188    3.121088   -2.670583
 ---------------------------------------------------------------------
                    Distance matrix (angstroms):
                    1          2          3          4          5
     1  C    0.000000
     2  C    1.300000   0.000000
     3  C    2.251666   1.300000   0.000000
     4  C    2.600000   2.251666   1.300000   0.000000
     5  C    2.251666   2.600000   2.251666   1.300000   0.000000
     6  C    1.300000   2.251413   2.599781   2.251666   1.300438
     7  F    1.400000   2.338803   3.534119   4.000000   3.534119
     8  H    1.997498   1.000000   1.997498   3.157531   3.600000
     9  H    3.157531   1.997498   1.000000   1.997498   3.157531
    10  H    3.600000   3.157531   1.997498   1.000000   1.997498
    11  H    3.157531   3.600000   3.157531   1.997498   1.000000
    12  H    1.997498   3.157531   3.600000   3.157531   1.997498
    13  O    4.200000   4.978956   6.252200   6.800000   6.252200
    14  C    5.399999   6.154242   7.436040   7.999998   7.435406
    15  H    5.963219   6.702621   7.977790   8.544002   7.977144
    16  H    5.963219   6.702621   7.977790   8.544002   7.977144
    17  H    2.735905   3.387292   4.410317   4.841433   4.410317
    18  N    3.634747   4.174881   5.085102   5.483489   5.084329
    19  C    4.401805   5.133279   5.922328   6.068171   5.463335
    20  O    5.561982   6.194426   6.902784   7.034960   6.485013
    21  C    4.525251   4.701148   5.556648   6.166765   6.033746
    22  H    5.394393   5.602227   6.372066   6.894639   6.726854
    23  H    4.829791   4.970576   5.954995   6.696086   6.592255
    24  H    4.342712   4.261992   4.977078   5.663267   5.724261
    25  H    4.168641   5.100106   5.870430   5.854853   5.064167
                    6          7          8          9         10
     6  C    0.000000
     7  F    2.338803   0.000000
     8  H    3.157212   2.523886   0.000000
     9  H    3.599720   4.334743   2.300000   0.000000
    10  H    3.157531   5.000000   3.983717   2.300000   0.000000
    11  H    1.998003   4.334743   4.600000   3.983717   2.300000
    12  H    1.001007   2.523886   3.983717   4.600000   3.983717
    13  O    4.978956   2.800000   4.784349   6.941902   7.800000
    14  C    6.153476   3.999999   5.897315   8.099279   8.999998
    15  H    6.706212   4.582574   6.428771   8.628389   9.539390
    16  H    6.697491   4.582574   6.428771   8.628389   9.539390
    17  H    3.408028   2.120000   3.464912   5.110678   5.759839
    18  N    4.198707   3.119999   4.217923   5.718660   6.336577
    19  C    4.623479   3.947334   5.348399   6.636196   6.865349
    20  O    5.754257   5.152132   6.368187   7.547706   7.760620
    21  C    5.280885   4.077660   4.494303   5.977016   6.955531
    22  H    6.029500   4.977158   5.445367   6.779475   7.630663
    23  H    5.738965   4.164638   4.592888   6.334296   7.530665
    24  H    5.139325   4.164638   4.018482   5.276080   6.383940
    25  H    4.172235   3.725136   5.454502   6.686039   6.661829
                   11         12         13         14         15
    11  H    0.000000
    12  H    2.300000   0.000000
    13  O    6.941902   4.784349   0.000000
    14  C    8.098249   5.895900   1.200000   0.000000
    15  H    8.627332   6.427353   1.907878   1.000000   0.000000
    16  H    8.627332   6.427353   1.907878   1.000000   1.732051
    17  H    5.110678   3.464912   3.205129   4.189191   4.308714
    18  N    5.717444   4.216274   3.813189   4.626027   4.531715
    19  C    5.898577   4.399942   4.444386   5.131795   4.923833
    20  O    6.860940   5.537006   5.433427   5.965992   5.585274
    21  C    6.745971   5.475597   4.548201   5.218310   4.992341
    22  H    7.360944   6.154205   5.279900   5.832022   5.464628
    23  H    7.366806   5.936425   4.139910   4.675284   4.403461
    24  H    6.479471   5.504064   5.106304   5.884152   5.767473
    25  H    5.394931   3.762148   4.316802   5.046363   4.950636
                   16         17         18         19         20
    16  H    0.000000
    17  H    5.079109   0.000000
    18  N    5.583926   1.000000   0.000000
    19  C    6.092232   2.019591   1.330000   0.000000
    20  O    6.946461   3.136564   2.252403   1.230000   0.000000
    21  C    6.179691   2.152898   1.450000   2.391174   2.708605
    22  H    6.817082   2.936317   2.031644   2.451165   2.277737
    23  H    5.608397   2.497892   2.031644   3.047165   3.392221
    24  H    6.804559   2.497892   2.031644   3.047165   3.392221
    25  H    5.943111   2.221144   1.956573   1.000000   1.965877
                   21         22         23         24         25
    21  C    0.000000
    22  H    1.000000   0.000000
    23  H    1.000000   1.620237   0.000000
    24  H    1.000000   1.620237   1.620237   0.000000
    25  H    3.265787   3.439091   3.853996   3.853996   0.000000
 Stoichiometry    C9H12FNO2
 Framework group  C1[X(C9H12FNO2)]
 Deg. of freedom    69
 Full point group                 C1      NOp   1
 Largest Abelian subgroup         C1      NOp   1
 Largest concise Abelian subgroup C1      NOp   1
                         Standard orientation:                         
 ---------------------------------------------------------------------
 Center     Atomic      Atomic             Coordinates (Angstroms)
 Number     Number       Type             X           Y           Z
 ---------------------------------------------------------------------
      1          6           0       -1.478032    0.684443   -0.051588
      2          6           0       -2.104132    0.515941    1.075180
      3          6           0       -3.275438   -0.047817    1.089957
      4          6           0       -3.820644   -0.443073   -0.022033
      5          6           0       -3.194545   -0.274571   -1.148801
      6          6           0       -2.037845    0.319455   -1.166663
      7          9           0       -0.216625    1.291568   -0.067502
      8          1           0       -1.684742    0.819984    1.930557
      9          1           0       -3.757053   -0.177434    1.956702
     10          1           0       -4.721649   -0.876733   -0.010666
     11          1           0       -3.613934   -0.578614   -2.004178
     12          1           0       -1.541623    0.418805   -2.030323
     13          8           0        2.306188    2.505816   -0.099330
     14          6           0        3.387467    3.025997   -0.115053
     15          1           0        4.212376    2.467341   -0.028858
     16          1           0        3.463577    4.018274   -0.213001
     17          1           0        1.017658   -0.418262    0.150277
     18          7           0        1.599928   -1.224960    0.251268
     19          6           0        2.021682   -1.868229   -0.833734
     20          8           0        2.739153   -2.866281   -0.788708
     21          6           0        2.003111   -1.720845    1.552822
     22          1           0        2.581073   -2.531467    1.458734
     23          1           0        2.519573   -1.024918    2.051772
     24          1           0        1.203544   -1.968806    2.099822
     25          1           0        1.698865   -1.461645   -1.688414
 ---------------------------------------------------------------------
 Rotational constants (GHZ):           0.7642922           0.3965404           0.3045691
 Standard basis: 6-311++G(d,p) (5D, 7F)
 There are   383 symmetry adapted cartesian basis functions of A   symmetry.
 There are   370 symmetry adapted basis functions of A   symmetry.
   370 basis functions,   576 primitive gaussians,   383 cartesian basis functions
    49 alpha electrons       49 beta electrons
       nuclear repulsion energy       746.7549931467 Hartrees.
 NAtoms=   25 NActive=   25 NUniq=   25 SFac= 1.00D+00 NAtFMM=   60 NAOKFM=F Big=F
 Integral buffers will be    131072 words long.
 Raffenetti 2 integral format.
 Two-electron integral symmetry is turned on.
 ------------------------------------------------------------------------------
 Polarizable Continuum Model (PCM)
 =================================
 Model                : PCM.
 Atomic radii         : UFF (Universal Force Field).
 Polarization charges : Total charges.
 Charge compensation  : None.
 Solution method      : On-the-fly selection.
 Cavity type          : Scaled VdW (van der Waals Surface) (Alpha=1.100).
 Cavity algorithm     : GePol (No added spheres)
                        Default sphere list used, NSphG=   25.
                        Lebedev-Laikov grids with approx.  5.0 points / Ang**2.
                        Smoothing algorithm: York/Karplus (Gamma=1.0000).
                        Polarization charges: spherical gaussians, with
                                              point-specific exponents (IZeta= 3).
                        Self-potential: point-specific (ISelfS= 7).
                        Self-field    : sphere-specific E.n sum rule (ISelfD= 2).
 1st derivatives      : Analytical E(r).r(x)/FMM algorithm (CHGder, D1EAlg=3).
                        Cavity 1st derivative terms included.
 Solvent              : Water, Eps=  78.355300 Eps(inf)=   1.777849
 ------------------------------------------------------------------------------
 One-electron integrals computed using PRISM.
 NBasis=   370 RedAO= T EigKep=  3.60D-06  NBF=   370
 NBsUse=   369 1.00D-06 EigRej=  5.51D-07 NBFU=   369
 ExpMin= 3.60D-02 ExpMax= 1.14D+04 ExpMxC= 1.72D+03 IAcc=3 IRadAn=         5 AccDes= 0.00D+00
 Harris functional with IExCor= 1009 and IRadAn=       5 diagonalized for initial guess.
 HarFok:  IExCor= 1009 AccDes= 0.00D+00 IRadAn=         5 IDoV= 1 UseB2=F ITyADJ=14
 ICtDFT=  3500011 ScaDFX=  1.000000  1.000000  1.000000  1.000000
 FoFCou: FMM=F IPFlag=           0 FMFlag=      100000 FMFlg1=           0
         NFxFlg=           0 DoJE=T BraDBF=F KetDBF=T FulRan=T
         wScrn=  0.000000 ICntrl=       500 IOpCl=  0 I1Cent=   200000004 NGrid=           0
         NMat0=    1 NMatS0=      1 NMatT0=    0 NMatD0=    1 NMtDS0=    0 NMtDT0=    0
 Petite list used in FoFCou.
 Requested convergence on RMS density matrix=1.00D-08 within 128 cycles.
 Requested convergence on MAX density matrix=1.00D-06.
 Requested convergence on             energy=1.00D-06.
 No special actions if energy rises.
 Inv3:  Mode=1 IEnd=    16188987.
 Iteration    1 A*A^-1 deviation from unit magnitude is 5.33D-15 for   2308.
 Iteration    1 A*A^-1 deviation from orthogonality  is 2.69D-15 for   2310   1596.
 Iteration    1 A^-1*A deviation from unit magnitude is 5.33D-15 for   2308.
 Iteration    1 A^-1*A deviation from orthogonality  is 2.86D-15 for   2304   2256.
 Error on total polarization charges =  0.01315
 SCF Done:  E(RM062X) =  -654.999087692     A.U. after   14 cycles
            NFock= 14  Conv=0.39D-08     -V/T= 1.9986

 **********************************************************************

            Population analysis using the SCF Density.

 **********************************************************************

 Orbital symmetries:
       Occupied  (A) (A) (A) (A) (A) (A) (A) (A) (A) (A) (A) (A)
                 (A) (A) (A) (A) (A) (A) (A) (A) (A) (A) (A) (A)
                 (A) (A) (A) (A) (A) (A) (A) (A) (A) (A) (A) (A)
                 (A) (A) (A) (A) (A) (A) (A) (A) (A) (A) (A) (A)
                 (A)
       Virtual   (A) (A) (A) (A) (A) (A) (A) (A) (A) (A) (A) (A)
                 (A) (A) (A) (A) (A) (A) (A) (A) (A) (A) (A) (A)
                 (A) (A) (A) (A) (A) (A) (A) (A) (A) (A) (A) (A)
                 (A) (A) (A) (A) (A) (A) (A) (A) (A) (A) (A) (A)
                 (A) (A) (A) (A) (A) (A) (A) (A) (A) (A) (A) (A)
                 (A) (A) (A) (A) (A) (A) (A) (A) (A) (A) (A) (A)
                 (A) (A) (A) (A) (A) (A) (A) (A) (A) (A) (A) (A)
                 (A) (A) (A) (A) (A) (A) (A) (A) (A) (A) (A) (A)
                 (A) (A) (A) (A) (A) (A) (A) (A) (A) (A) (A) (A)
                 (A) (A) (A) (A) (A) (A) (A) (A) (A) (A) (A) (A)
                 (A) (A) (A) (A) (A) (A) (A) (A) (A) (A) (A) (A)
                 (A) (A) (A) (A) (A) (A) (A) (A) (A) (A) (A) (A)
                 (A) (A) (A) (A) (A) (A) (A) (A) (A) (A) (A) (A)
                 (A) (A) (A) (A) (A) (A) (A) (A) (A) (A) (A) (A)
                 (A) (A) (A) (A) (A) (A) (A) (A) (A) (A) (A) (A)
                 (A) (A) (A) (A) (A) (A) (A) (A) (A) (A) (A) (A)
                 (A) (A) (A) (A) (A) (A) (A) (A) (A) (A) (A) (A)
                 (A) (A) (A) (A) (A) (A) (A) (A) (A) (A) (A) (A)
                 (A) (A) (A) (A) (A) (A) (A) (A) (A) (A) (A) (A)
                 (A) (A) (A) (A) (A) (A) (A) (A) (A) (A) (A) (A)
                 (A) (A) (A) (A) (A) (A) (A) (A) (A) (A) (A) (A)
                 (A) (A) (A) (A) (A) (A) (A) (A) (A) (A) (A) (A)
                 (A) (A) (A) (A) (A) (A) (A) (A) (A) (A) (A) (A)
                 (A) (A) (A) (A) (A) (A) (A) (A) (A) (A) (A) (A)
                 (A) (A) (A) (A) (A) (A) (A) (A) (A) (A) (A) (A)
                 (A) (A) (A) (A) (A) (A) (A) (A) (A) (A) (A) (A)
                 (A) (A) (A) (A) (A) (A) (A) (A)
 The electronic state is 1-A.
 Alpha  occ. eigenvalues --  -25.25404 -19.63883 -19.59367 -14.77470 -10.63267
 Alpha  occ. eigenvalues --  -10.61558 -10.61363 -10.53587 -10.52456 -10.52447
 Alpha  occ. eigenvalues --  -10.52180 -10.52167 -10.51436  -1.35944  -1.19103
 Alpha  occ. eigenvalues --   -1.16395  -1.03910  -1.03197  -0.89357  -0.88473
 Alpha  occ. eigenvalues --   -0.83349  -0.74905  -0.73809  -0.72375  -0.69534
 Alpha  occ. eigenvalues --   -0.66435  -0.64880  -0.60443  -0.59123  -0.58764
 Alpha  occ. eigenvalues --   -0.57013  -0.54590  -0.54138  -0.53930  -0.53496
 Alpha  occ. eigenvalues --   -0.52535  -0.50095  -0.49674  -0.47968  -0.47515
 Alpha  occ. eigenvalues --   -0.47238  -0.46371  -0.44460  -0.42063  -0.35067
 Alpha  occ. eigenvalues --   -0.34574  -0.33926  -0.33029  -0.32471
 Alpha virt. eigenvalues --   -0.00463  -0.00377   0.00727   0.00971   0.01533
 Alpha virt. eigenvalues --    0.02275   0.02388   0.02899   0.03065   0.03391
 Alpha virt. eigenvalues --    0.04117   0.04357   0.04443   0.05231   0.05346
 Alpha virt. eigenvalues --    0.06610   0.06976   0.07541   0.07712   0.08793
 Alpha virt. eigenvalues --    0.09190   0.09557   0.09763   0.11439   0.11531
 Alpha virt. eigenvalues --    0.11648   0.11921   0.12670   0.13151   0.13483
 Alpha virt. eigenvalues --    0.14049   0.14127   0.14168   0.14438   0.15061
 Alpha virt. eigenvalues --    0.15234   0.15429   0.15812   0.16184   0.16745
 Alpha virt. eigenvalues --    0.17401   0.17815   0.18626   0.18830   0.19176
 Alpha virt. eigenvalues --    0.19575   0.20281   0.21079   0.21160   0.21974
 Alpha virt. eigenvalues --    0.22286   0.22849   0.23458   0.23824   0.25418
 Alpha virt. eigenvalues --    0.25720   0.26243   0.26745   0.27136   0.27208
 Alpha virt. eigenvalues --    0.28165   0.29142   0.30304   0.30648   0.31445
 Alpha virt. eigenvalues --    0.31745   0.32573   0.32866   0.33558   0.34163
 Alpha virt. eigenvalues --    0.34695   0.35872   0.36241   0.36318   0.37161
 Alpha virt. eigenvalues --    0.37663   0.39057   0.39941   0.40444   0.41444
 Alpha virt. eigenvalues --    0.42907   0.43534   0.44198   0.45091   0.45868
 Alpha virt. eigenvalues --    0.47733   0.49317   0.50639   0.52178   0.53664
 Alpha virt. eigenvalues --    0.54602   0.55528   0.56397   0.57433   0.58615
 Alpha virt. eigenvalues --    0.59439   0.60285   0.60818   0.61452   0.61846
 Alpha virt. eigenvalues --    0.62144   0.62628   0.64010   0.65307   0.65577
 Alpha virt. eigenvalues --    0.66135   0.67884   0.68824   0.70498   0.70970
 Alpha virt. eigenvalues --    0.72109   0.73364   0.74296   0.75501   0.76042
 Alpha virt. eigenvalues --    0.76581   0.76866   0.79483   0.80339   0.81587
 Alpha virt. eigenvalues --    0.81687   0.83551   0.85504   0.86303   0.86975
 Alpha virt. eigenvalues --    0.89380   0.89987   0.91337   0.92658   0.93953
 Alpha virt. eigenvalues --    0.94905   0.98393   1.00092   1.00716   1.01675
 Alpha virt. eigenvalues --    1.02092   1.03300   1.05431   1.07232   1.08701
 Alpha virt. eigenvalues --    1.08963   1.09911   1.10694   1.11568   1.12739
 Alpha virt. eigenvalues --    1.16357   1.16684   1.17142   1.19120   1.20221
 Alpha virt. eigenvalues --    1.21056   1.22571   1.24129   1.24738   1.27532
 Alpha virt. eigenvalues --    1.29204   1.30503   1.35348   1.36152   1.36764
 Alpha virt. eigenvalues --    1.37933   1.43018   1.51974   1.52766   1.53632
 Alpha virt. eigenvalues --    1.54215   1.55712   1.57853   1.58737   1.61801
 Alpha virt. eigenvalues --    1.62005   1.62593   1.63575   1.64201   1.65297
 Alpha virt. eigenvalues --    1.66236   1.68133   1.68430   1.70165   1.70504
 Alpha virt. eigenvalues --    1.72358   1.73693   1.74608   1.75973   1.76646
 Alpha virt. eigenvalues --    1.77130   1.80290   1.82162   1.82805   1.85033
 Alpha virt. eigenvalues --    1.85454   1.85830   1.86161   1.86631   1.90943
 Alpha virt. eigenvalues --    1.92603   1.94581   1.97423   1.98129   1.99352
 Alpha virt. eigenvalues --    2.03705   2.03857   2.04784   2.05675   2.06793
 Alpha virt. eigenvalues --    2.08396   2.12497   2.13970   2.15358   2.15824
 Alpha virt. eigenvalues --    2.17644   2.17780   2.20479   2.21815   2.23977
 Alpha virt. eigenvalues --    2.26797   2.37329   2.40079   2.40882   2.41778
 Alpha virt. eigenvalues --    2.46669   2.48865   2.50765   2.51512   2.53848
 Alpha virt. eigenvalues --    2.56607   2.58346   2.58500   2.62162   2.63931
 Alpha virt. eigenvalues --    2.64436   2.67458   2.69359   2.70858   2.71115
 Alpha virt. eigenvalues --    2.72561   2.75531   2.76921   2.77402   2.78120
 Alpha virt. eigenvalues --    2.79175   2.79722   2.81657   2.84661   2.86595
 Alpha virt. eigenvalues --    2.86697   2.87874   2.89796   2.90039   2.90546
 Alpha virt. eigenvalues --    2.93952   2.94626   2.96607   2.98791   2.99626
 Alpha virt. eigenvalues --    3.00651   3.02626   3.04158   3.06588   3.08545
 Alpha virt. eigenvalues --    3.11876   3.24212   3.27175   3.27898   3.35194
 Alpha virt. eigenvalues --    3.39781   3.41755   3.42082   3.44176   3.55546
 Alpha virt. eigenvalues --    3.60101   3.61756   3.63636   3.64819   3.70696
 Alpha virt. eigenvalues --    3.75396   3.76484   3.87012   3.87813   3.88976
 Alpha virt. eigenvalues --    3.96099   3.99816   4.00764   4.04676   4.04761
 Alpha virt. eigenvalues --    4.08949   4.10812   4.11378   4.13182   4.17963
 Alpha virt. eigenvalues --    4.19309   4.26280   4.26501   4.36436   4.94909
 Alpha virt. eigenvalues --    4.95012   4.99390   5.06405   5.11553   5.17356
 Alpha virt. eigenvalues --    5.24626   5.32862   5.83040   5.86376   6.57787
 Alpha virt. eigenvalues --    6.62239   6.88776  23.73922  24.08870  24.17750
 Alpha virt. eigenvalues --   24.26898  24.27900  24.31769  24.54325  24.57351
 Alpha virt. eigenvalues --   24.72715  35.71483  50.07210  50.11301  66.97094
          Condensed to atoms (all electrons):
               1          2          3          4          5          6
     1  C   11.500943  -1.076001  -1.427243  -0.448900  -1.266179  -1.076124
     2  C   -1.076001  13.703164   0.918213  -0.690594   0.131149  -7.315129
     3  C   -1.427243   0.918213   6.086733   0.630230  -0.367697   0.015990
     4  C   -0.448900  -0.690594   0.630230   6.483458   0.563673  -0.561595
     5  C   -1.266179   0.131149  -0.367697   0.563673   6.054286   0.763030
     6  C   -1.076124  -7.315129   0.015990  -0.561595   0.763030  13.792808
     7  F    0.604327  -0.298361  -0.055933   0.029799  -0.069310  -0.291913
     8  H   -0.213865   0.684942  -0.010911  -0.006496   0.019826  -0.138279
     9  H    0.051021  -0.066267   0.405276  -0.111183  -0.023162   0.079634
    10  H    0.021629  -0.021810  -0.058533   0.492099  -0.060866  -0.015466
    11  H    0.057384   0.085840  -0.021764  -0.112078   0.414425  -0.085858
    12  H   -0.256733  -0.167390   0.024787   0.005348  -0.012857   0.725684
    13  O    0.042560  -0.021581  -0.001895  -0.000707  -0.001646  -0.012768
    14  C    0.001681  -0.000807  -0.000046   0.000567  -0.000286  -0.002188
    15  H    0.001839  -0.000722  -0.000241   0.000022  -0.000204  -0.000387
    16  H   -0.002005   0.000716   0.000138  -0.000021   0.000276   0.000489
    17  H   -0.049643  -0.004756  -0.011581  -0.005060   0.017241   0.010113
    18  N   -0.018634  -0.010100   0.017032   0.003293   0.000642   0.017537
    19  C    0.032385  -0.026722   0.001138   0.004943  -0.005058   0.013229
    20  O    0.000938  -0.000016  -0.000527   0.000068   0.001129  -0.001185
    21  C   -0.002012   0.039958  -0.000027   0.001175  -0.002325  -0.036707
    22  H    0.002996   0.002951   0.000841   0.000013  -0.001008  -0.003140
    23  H    0.006359  -0.005017  -0.001339  -0.000303  -0.000719   0.002760
    24  H    0.001040   0.003229  -0.001564   0.002055   0.001289  -0.002841
    25  H    0.037296   0.006802  -0.000672  -0.000649  -0.009912  -0.016834
               7          8          9         10         11         12
     1  C    0.604327  -0.213865   0.051021   0.021629   0.057384  -0.256733
     2  C   -0.298361   0.684942  -0.066267  -0.021810   0.085840  -0.167390
     3  C   -0.055933  -0.010911   0.405276  -0.058533  -0.021764   0.024787
     4  C    0.029799  -0.006496  -0.111183   0.492099  -0.112078   0.005348
     5  C   -0.069310   0.019826  -0.023162  -0.060866   0.414425  -0.012857
     6  C   -0.291913  -0.138279   0.079634  -0.015466  -0.085858   0.725684
     7  F    9.259284  -0.033963  -0.000860   0.001009  -0.001083  -0.028604
     8  H   -0.033963   0.490109  -0.011870   0.000618   0.002286   0.000980
     9  H   -0.000860  -0.011870   0.471175  -0.012416   0.000470   0.002533
    10  H    0.001009   0.000618  -0.012416   0.477977  -0.013108   0.001176
    11  H   -0.001083   0.002286   0.000470  -0.013108   0.475813  -0.018957
    12  H   -0.028604   0.000980   0.002533   0.001176  -0.018957   0.515810
    13  O    0.004202  -0.000400   0.000074  -0.000010   0.000063  -0.000022
    14  C    0.001204   0.000002  -0.000034   0.000015  -0.000023  -0.000258
    15  H   -0.000688  -0.000137   0.000001   0.000000   0.000001  -0.000164
    16  H   -0.000493   0.000141  -0.000003  -0.000000  -0.000000   0.000090
    17  H    0.109782  -0.007690   0.001851  -0.001915   0.001119   0.001748
    18  N   -0.027282  -0.000917  -0.000047   0.000103  -0.000100   0.001290
    19  C   -0.014363   0.001336  -0.000188   0.000349  -0.000782   0.000006
    20  O    0.000052   0.000179  -0.000022   0.000003  -0.000011  -0.000006
    21  C   -0.007246   0.003372  -0.000571   0.000187  -0.000048  -0.000163
    22  H   -0.001097   0.000401  -0.000003   0.000020   0.000027  -0.000263
    23  H   -0.001256  -0.000508   0.000131   0.000005  -0.000020   0.000146
    24  H    0.000999  -0.001167  -0.000576   0.000023   0.000033  -0.000511
    25  H   -0.004005   0.000930  -0.000058  -0.000010   0.000265  -0.005950
              13         14         15         16         17         18
     1  C    0.042560   0.001681   0.001839  -0.002005  -0.049643  -0.018634
     2  C   -0.021581  -0.000807  -0.000722   0.000716  -0.004756  -0.010100
     3  C   -0.001895  -0.000046  -0.000241   0.000138  -0.011581   0.017032
     4  C   -0.000707   0.000567   0.000022  -0.000021  -0.005060   0.003293
     5  C   -0.001646  -0.000286  -0.000204   0.000276   0.017241   0.000642
     6  C   -0.012768  -0.002188  -0.000387   0.000489   0.010113   0.017537
     7  F    0.004202   0.001204  -0.000688  -0.000493   0.109782  -0.027282
     8  H   -0.000400   0.000002  -0.000137   0.000141  -0.007690  -0.000917
     9  H    0.000074  -0.000034   0.000001  -0.000003   0.001851  -0.000047
    10  H   -0.000010   0.000015   0.000000  -0.000000  -0.001915   0.000103
    11  H    0.000063  -0.000023   0.000001  -0.000000   0.001119  -0.000100
    12  H   -0.000022  -0.000258  -0.000164   0.000090   0.001748   0.001290
    13  O    8.203708   0.262379  -0.084430  -0.093985   0.049459  -0.005763
    14  C    0.262379   4.804554   0.412854   0.421808  -0.013306   0.002139
    15  H   -0.084430   0.412854   0.665641  -0.122128   0.002252  -0.000449
    16  H   -0.093985   0.421808  -0.122128   0.668959  -0.000812   0.000790
    17  H    0.049459  -0.013306   0.002252  -0.000812   0.650175   0.343623
    18  N   -0.005763   0.002139  -0.000449   0.000790   0.343623   7.110277
    19  C   -0.007830   0.001509   0.000579  -0.000435  -0.143451   0.173025
    20  O    0.000125  -0.000144   0.000021  -0.000024   0.002625  -0.179232
    21  C   -0.005076   0.001822  -0.000694   0.000309  -0.076694   0.166540
    22  H   -0.000120   0.000522  -0.000327   0.000037  -0.031025  -0.097424
    23  H   -0.000341   0.000525  -0.000222  -0.000042  -0.005965  -0.043117
    24  H   -0.000214  -0.000473   0.000346  -0.000127   0.019186  -0.047152
    25  H   -0.001196   0.000351   0.000218  -0.000116  -0.037447  -0.225279
              19         20         21         22         23         24
     1  C    0.032385   0.000938  -0.002012   0.002996   0.006359   0.001040
     2  C   -0.026722  -0.000016   0.039958   0.002951  -0.005017   0.003229
     3  C    0.001138  -0.000527  -0.000027   0.000841  -0.001339  -0.001564
     4  C    0.004943   0.000068   0.001175   0.000013  -0.000303   0.002055
     5  C   -0.005058   0.001129  -0.002325  -0.001008  -0.000719   0.001289
     6  C    0.013229  -0.001185  -0.036707  -0.003140   0.002760  -0.002841
     7  F   -0.014363   0.000052  -0.007246  -0.001097  -0.001256   0.000999
     8  H    0.001336   0.000179   0.003372   0.000401  -0.000508  -0.001167
     9  H   -0.000188  -0.000022  -0.000571  -0.000003   0.000131  -0.000576
    10  H    0.000349   0.000003   0.000187   0.000020   0.000005   0.000023
    11  H   -0.000782  -0.000011  -0.000048   0.000027  -0.000020   0.000033
    12  H    0.000006  -0.000006  -0.000163  -0.000263   0.000146  -0.000511
    13  O   -0.007830   0.000125  -0.005076  -0.000120  -0.000341  -0.000214
    14  C    0.001509  -0.000144   0.001822   0.000522   0.000525  -0.000473
    15  H    0.000579   0.000021  -0.000694  -0.000327  -0.000222   0.000346
    16  H   -0.000435  -0.000024   0.000309   0.000037  -0.000042  -0.000127
    17  H   -0.143451   0.002625  -0.076694  -0.031025  -0.005965   0.019186
    18  N    0.173025  -0.179232   0.166540  -0.097424  -0.043117  -0.047152
    19  C    4.933309   0.461608  -0.041769   0.032596  -0.005548  -0.008335
    20  O    0.461608   8.271508  -0.026718   0.036131  -0.003010  -0.005045
    21  C   -0.041769  -0.026718   5.076706   0.438570   0.428197   0.409707
    22  H    0.032596   0.036131   0.438570   0.486261  -0.026675  -0.026314
    23  H   -0.005548  -0.003010   0.428197  -0.026675   0.543532  -0.060710
    24  H   -0.008335  -0.005045   0.409707  -0.026314  -0.060710   0.551416
    25  H    0.459367  -0.036686   0.003260   0.014560  -0.002401  -0.003217
              25
     1  C    0.037296
     2  C    0.006802
     3  C   -0.000672
     4  C   -0.000649
     5  C   -0.009912
     6  C   -0.016834
     7  F   -0.004005
     8  H    0.000930
     9  H   -0.000058
    10  H   -0.000010
    11  H    0.000265
    12  H   -0.005950
    13  O   -0.001196
    14  C    0.000351
    15  H    0.000218
    16  H   -0.000116
    17  H   -0.037447
    18  N   -0.225279
    19  C    0.459367
    20  O   -0.036686
    21  C    0.003260
    22  H    0.014560
    23  H   -0.002401
    24  H   -0.003217
    25  H    0.675150
 Mulliken charges:
               1
     1  C   -0.525060
     2  C    0.128310
     3  C   -0.140405
     4  C   -0.279157
     5  C   -0.145736
     6  C    0.139140
     7  F   -0.174201
     8  H    0.221081
     9  H    0.215093
    10  H    0.188920
    11  H    0.216106
    12  H    0.212280
    13  O   -0.324581
    14  C    0.105632
    15  H    0.127017
    16  H    0.126438
    17  H    0.180169
    18  N   -0.180797
    19  C    0.139099
    20  O   -0.521761
    21  C   -0.369754
    22  H    0.171472
    23  H    0.175539
    24  H    0.168924
    25  H    0.146232
 Sum of Mulliken charges =  -0.00000
 Mulliken charges with hydrogens summed into heavy atoms:
               1
     1  C   -0.525060
     2  C    0.349391
     3  C    0.074688
     4  C   -0.090237
     5  C    0.070370
     6  C    0.351420
     7  F   -0.174201
    13  O   -0.324581
    14  C    0.359088
    18  N   -0.000628
    19  C    0.285331
    20  O   -0.521761
    21  C    0.146180
 Electronic spatial extent (au):  <R**2>=           3669.8966
 Charge=             -0.0000 electrons
 Dipole moment (field-independent basis, Debye):
    X=             -2.6877    Y=              4.5279    Z=              1.8181  Tot=              5.5706
 Quadrupole moment (field-independent basis, Debye-Ang):
   XX=            -63.2542   YY=            -87.5220   ZZ=            -66.8040
   XY=             28.0166   XZ=              5.1016   YZ=             -5.4309
 Traceless Quadrupole moment (field-independent basis, Debye-Ang):
   XX=              9.2725   YY=            -14.9952   ZZ=              5.7227
   XY=             28.0166   XZ=              5.1016   YZ=             -5.4309
 Octapole moment (field-independent basis, Debye-Ang**2):
  XXX=             12.6403  YYY=            101.4233  ZZZ=              1.7423  XYY=              3.7475
  XXY=             91.6028  XXZ=             17.7325  XZZ=             -2.5924  YZZ=              3.5913
  YYZ=             18.8766  XYZ=            -22.3184
 Hexadecapole moment (field-independent basis, Debye-Ang**3):
 XXXX=          -2683.3140 YYYY=          -1373.0412 ZZZZ=           -422.3324 XXXY=            451.9349
 XXXZ=             36.3861 YYYX=            346.1547 YYYZ=            -68.9085 ZZZX=              6.2725
 ZZZY=             -5.3196 XXYY=           -701.4164 XXZZ=           -531.1623 YYZZ=           -302.5532
 XXYZ=            -54.6043 YYXZ=             51.6672 ZZXY=             14.4933
 N-N= 7.467549931467D+02 E-N=-3.030048323463D+03  KE= 6.559096628154D+02
 D1PCM: PCM CHGder 1st derivatives, ID1Alg=3 FixD1E=F DoIter=F DoCFld=F I1PDM=0.
 Calling FoFJK, ICntrl=      2127 FMM=F ISym2X=0 I1Cent= 0 IOpClX= 0 NMat=1 NMatS=1 NMatT=0.
 ***** Axes restored to original set *****
 -------------------------------------------------------------------
 Center     Atomic                   Forces (Hartrees/Bohr)
 Number     Number              X              Y              Z
 -------------------------------------------------------------------
      1        6          -0.087292970   -0.004084579   -0.050383716
      2        6          -0.053864919    0.001106044    0.015050215
      3        6           0.002652753    0.000006397    0.037568346
      4        6           0.039459395    0.000603512    0.022766706
      5        6           0.033404092   -0.002463163   -0.016612095
      6        6          -0.013466262    0.003547466   -0.055118677
      7        9           0.023427850    0.001874304    0.013514660
      8        1          -0.065582645    0.000368021    0.036066158
      9        1          -0.001699576   -0.000156836    0.073798218
     10        1           0.064284315    0.000594553    0.037120112
     11        1           0.063053067    0.000405887   -0.038383815
     12        1          -0.001583180   -0.000874803   -0.073876329
     13        8           0.016165024    0.000127925    0.009367706
     14        6           0.060023743    0.000040410    0.034887132
     15        1          -0.039141193    0.071366270   -0.022702805
     16        1          -0.039138131   -0.071348508   -0.022702279
     17        1          -0.001246623   -0.009886634    0.001629663
     18        7          -0.003198341    0.014710373    0.002217018
     19        6          -0.036705298    0.049980530    0.046196793
     20        8           0.004366082   -0.000566139   -0.007449389
     21        6           0.030980565   -0.043636821   -0.038292976
     22        1          -0.000346450    0.070507489   -0.024304622
     23        1          -0.072861186   -0.029097020    0.005752616
     24        1           0.036904055   -0.006737167    0.069169405
     25        1           0.041405832   -0.046387512   -0.055278048
 -------------------------------------------------------------------
 Cartesian Forces:  Max     0.087292970 RMS     0.037356882
 -----------------------------------------------------------------------------------------------
                       Internal Coordinate Forces (Hartree/Bohr or radian)
  Cent   Atom   N1       Length/X         N2         Alpha/Y        N3         Beta/Z          J
 -----------------------------------------------------------------------------------------------
      1  C 
      2  C        1   0.167374(     1)
      3  C        2   0.232333(     2)      1   0.493515(    25)
      4  C        3   0.170934(     3)      2   0.490046(    26)      1  -0.005541(    48)     0
      5  C        4   0.054996(     4)      3   0.233720(    27)      2  -0.004377(    49)     0
      6  C        1   0.051354(     5)      2   0.295900(    28)      3  -0.004223(    50)     0
      7  F        1  -0.026259(     6)      2   0.000311(    29)      3  -0.000170(    51)     0
      8  H        2   0.074829(     7)      1  -0.002943(    30)      6  -0.000602(    52)     0
      9  H        3   0.073798(     8)      2  -0.003212(    31)      1   0.000257(    53)     0
     10  H        4   0.074232(     9)      3  -0.000009(    32)      2  -0.000973(    54)     0
     11  H        5   0.073797(    10)      4   0.003241(    33)      3  -0.000664(    55)     0
     12  H        6   0.073804(    11)      1  -0.002712(    34)      2  -0.005640(    56)     0
     13  O        1   0.002386(    12)      2  -0.000377(    35)      3   0.001403(    57)     0
     14  C       13   0.021069(    13)      1  -0.000013(    36)      2  -0.000002(    58)     0
     15  H       14   0.084429(    14)     13   0.006621(    37)      1   0.000111(    59)     0
     16  H       14   0.084413(    15)     13   0.006633(    38)      1  -0.000112(    60)     0
     17  H        7  -0.000959(    16)      1   0.002060(    39)      2  -0.000261(    61)     0
     18  N       17   0.008735(    17)      7   0.000032(    40)      1  -0.000428(    62)     0
     19  C       18   0.017920(    18)     17  -0.029431(    41)      7  -0.000425(    63)     0
     20  O       19   0.000006(    19)     18   0.020113(    42)     17  -0.000083(    64)     0
     21  C       18   0.006488(    20)     17  -0.033205(    43)     19  -0.000113(    65)     0
     22  H       21   0.074301(    21)     18  -0.012172(    44)     17   0.000035(    66)     0
     23  H       21   0.078628(    22)     18  -0.004679(    45)     17   0.000335(    67)     0
     24  H       21   0.078649(    23)     18  -0.004622(    46)     17  -0.000354(    68)     0
     25  H       19   0.083109(    24)     18   0.007253(    47)     17  -0.000068(    69)     0
 -----------------------------------------------------------------------------------------------
 Internal  Forces:  Max     0.493515474 RMS     0.108593534

 GradGradGradGradGradGradGradGradGradGradGradGradGradGradGradGradGradGrad
 Berny optimization.
 Search for a local minimum.
 Step number   1 out of a maximum of   34
 All quantities printed in internal units (Hartrees-Bohrs-Radians)
 Second derivative matrix not updated -- first step.
 ITU=  0
     Eigenvalues ---    0.00539   0.03554   0.38245   0.45620   0.47512
     Eigenvalues ---    0.47688   0.47688   0.47688   0.47688   0.47688
     Eigenvalues ---    0.47688   0.47688   0.47688   0.47688   0.47688
     Eigenvalues ---    0.47688   0.59506   0.67193   0.67193   0.67196
     Eigenvalues ---    0.91086   1.04823   1.07882   2.01215
 RFO step:  Lambda=-1.93654280D-01 EMin= 5.39045724D-03
 Linear search not attempted -- first point.
 Maximum step size (   0.300) exceeded in Quadratic search.
    -- Step size scaled by   0.615
 Variable       Old X    -DE/DX   Delta X   Delta X   Delta X     New X
                                 (Linear)    (Quad)   (Total)
    B1        2.45664   0.16737   0.00000   0.08168   0.08168   2.53833
    B2        2.45664   0.23233   0.00000   0.08979   0.08979   2.54644
    B3        2.45664   0.17093   0.00000   0.08335   0.08335   2.54000
    B4        2.45664   0.05500   0.00000   0.07619   0.07619   2.53284
    B5        2.45664   0.05135   0.00000   0.07442   0.07442   2.53106
    B6        2.64562  -0.02626   0.00000  -0.02483  -0.02483   2.62078
    B7        1.88973   0.07483   0.00000   0.06858   0.06858   1.95831
    B8        1.88973   0.07380   0.00000   0.06764   0.06764   1.95736
    B9        1.88973   0.07423   0.00000   0.06803   0.06803   1.95776
   B10        1.88973   0.07380   0.00000   0.06764   0.06764   1.95736
   B11        1.89163   0.07380   0.00000   0.06782   0.06782   1.95945
   B12        7.93685   0.00239   0.00000   0.00737   0.00737   7.94422
   B13        2.26767   0.02107   0.00000   0.01043   0.01043   2.27810
   B14        1.88973   0.08443   0.00000   0.07738   0.07738   1.96711
   B15        1.88973   0.08441   0.00000   0.07736   0.07736   1.96709
   B16        4.00622  -0.00096   0.00000  -0.00257  -0.00257   4.00365
   B17        1.88973   0.00873   0.00000   0.00801   0.00801   1.89773
   B18        2.51334   0.01792   0.00000   0.01396   0.01396   2.52730
   B19        2.32436   0.00001   0.00000   0.00000   0.00000   2.32437
   B20        2.74010   0.00649   0.00000   0.00692   0.00692   2.74702
   B21        1.88973   0.07430   0.00000   0.06810   0.06810   1.95782
   B22        1.88973   0.07863   0.00000   0.07206   0.07206   1.96179
   B23        1.88973   0.07865   0.00000   0.07208   0.07208   1.96181
   B24        1.88973   0.08311   0.00000   0.07617   0.07617   1.96590
         Item               Value     Threshold  Converged?
 Maximum Force            0.232333     0.000450     NO 
 RMS     Force            0.087786     0.000300     NO 
 Maximum Displacement     0.089795     0.001800     NO 
 RMS     Displacement     0.061237     0.001200     NO 
 Predicted change in Energy=-9.115538D-02
 GradGradGradGradGradGradGradGradGradGradGradGradGradGradGradGradGradGrad

 ---------------------------------------------------------------------------------------------------
                            Z-MATRIX (ANGSTROMS AND DEGREES)
   CD    Cent   Atom    N1       Length/X        N2       Alpha/Y        N3        Beta/Z          J
 ---------------------------------------------------------------------------------------------------
      1      1  C 
      2      2  C        1   1.343224(     1)
      3      3  C        2   1.347517(     2)      1  120.000(    25)
      4      4  C        3   1.344108(     3)      2  120.000(    26)      1    0.000(    48)      0
      5      5  C        4   1.340321(     4)      3  120.000(    27)      2    0.000(    49)      0
      6      6  C        1   1.339380(     5)      2  119.978(    28)      3    1.717(    50)      0
      7      7  F        1   1.386859(     6)      2  120.000(    29)      3 -180.000(    51)      0
      8      8  H        2   1.036291(     7)      1  120.000(    30)      6 -178.283(    52)      0
      9      9  H        3   1.035791(     8)      2  120.000(    31)      1  180.000(    53)      0
     10     10  H        4   1.036002(     9)      3  120.000(    32)      2  180.000(    54)      0
     11     11  H        5   1.035791(    10)      4  120.000(    33)      3  180.000(    55)      0
     12     12  H        6   1.036896(    11)      1  119.916(    34)      2 -177.772(    56)      0
     13     13  O        1   4.203898(    12)      2  120.000(    35)      3 -180.000(    57)      0
     14     14  C       13   1.205517(    13)      1  179.900(    36)      2  180.000(    58)      0
     15     15  H       14   1.040947(    14)     13  120.000(    37)      1  -90.045(    59)      0
     16     16  H       14   1.040939(    15)     13  120.000(    38)      1   90.045(    60)      0
     17     17  H        7   2.118639(    16)      1  100.000(    39)      2   90.000(    61)      0
     18     18  N       17   1.004236(    17)      7  179.900(    40)      1   90.000(    62)      0
     19     19  C       18   1.337389(    18)     17  119.500(    41)      7    0.000(    63)      0
     20     20  O       19   1.230002(    19)     18  123.200(    42)     17 -180.000(    64)      0
     21     21  C       18   1.453662(    20)     17  121.900(    43)     19 -180.000(    65)      0
     22     22  H       21   1.036035(    21)     18  110.700(    44)     17 -180.000(    66)      0
     23     23  H       21   1.038133(    22)     18  110.700(    45)     17  -60.000(    67)      0
     24     24  H       21   1.038144(    23)     18  110.700(    46)     17   60.000(    68)      0
     25     25  H       19   1.040307(    24)     18  113.467(    47)     17    0.000(    69)      0
 ---------------------------------------------------------------------------------------------------
                         Z-Matrix orientation:                         
 ---------------------------------------------------------------------
 Center     Atomic      Atomic             Coordinates (Angstroms)
 Number     Number       Type             X           Y           Z
 ---------------------------------------------------------------------
      1          6           0        0.000000    0.000000    0.000000
      2          6           0        0.000000    0.000000    1.343224
      3          6           0        1.166984    0.000000    2.016983
      4          6           0        2.331016    0.000000    1.344929
      5          6           0        2.331016    0.000000    0.004608
      6          6           0        1.159677   -0.034767   -0.669239
      7          9           0       -1.201055    0.000000   -0.693430
      8          1           0       -0.897455    0.000000    1.861370
      9          1           0        1.166984    0.000000    3.052774
     10          1           0        3.228219    0.000000    1.862930
     11          1           0        3.228037    0.000000   -0.513287
     12          1           0        1.159939    0.000188   -1.705545
     13          8           0       -3.640682    0.000000   -2.101949
     14          6           0       -4.683637    0.000000   -2.706529
     15          1           0       -5.134279    0.901487   -2.966940
     16          1           0       -5.134276   -0.901480   -2.966938
     17          1           0       -1.519664    2.086452   -0.877379
     18          7           0       -1.669808    3.075430   -0.966088
     19          6           0       -1.185964    3.721985   -2.032142
     20          8           0       -1.329771    4.930637   -2.209297
     21          6           0       -2.402040    3.834051    0.034644
     22          1           0       -2.453319    4.834567   -0.229374
     23          1           0       -3.370881    3.473992    0.131732
     24          1           0       -1.936333    3.766071    0.959976
     25          1           0       -0.676837    3.103530   -2.695875
 ---------------------------------------------------------------------
                    Distance matrix (angstroms):
                    1          2          3          4          5
     1  C    0.000000
     2  C    1.343224   0.000000
     3  C    2.330251   1.347517   0.000000
     4  C    2.691183   2.331016   1.344108   0.000000
     5  C    2.331020   2.688034   2.324784   1.340321   0.000000
     6  C    1.339380   2.322943   2.686457   2.330261   1.351782
     7  F    1.386859   2.364422   3.599159   4.078043   3.600386
     8  H    2.066428   1.036291   2.070295   3.269515   3.724323
     9  H    3.268223   2.069882   1.035791   2.066810   3.262864
    10  H    3.727185   3.269785   2.066984   1.036002   2.063573
    11  H    3.268591   3.723823   3.263465   2.063399   1.035791
    12  H    2.062606   3.261971   3.722535   3.267540   2.072691
    13  O    4.203898   5.012363   6.330818   6.895081   6.332358
    14  C    5.409413   6.191684   7.519397   8.100596   7.520347
    15  H    5.998019   6.763950   8.084435   8.668075   8.085382
    16  H    5.998014   6.763945   8.084430   8.668070   8.085378
    17  H    2.726253   3.404958   4.466396   4.911178   4.467540
    18  N    3.630407   4.192786   5.138519   5.550285   5.138785
    19  C    4.403326   5.162633   5.982052   6.134079   5.510959
    20  O    5.564213   6.220923   6.957471   7.095425   6.527934
    21  C    4.524483   4.709790   5.600674   6.230458   6.091196
    22  H    5.426272   5.644899   6.444048   6.981499   6.805707
    23  H    4.842397   4.989907   6.017891   6.786169   6.678054
    24  H    4.342146   4.252006   4.993109   5.704537   5.771160
    25  H    4.166263   5.138514   5.936548   5.916685   5.096242
                    6          7          8          9         10
     6  C    0.000000
     7  F    2.361112   0.000000
     8  H    3.261438   2.572776   0.000000
     9  H    3.722182   4.431891   2.383559   0.000000
    10  H    3.269856   5.114044   4.125674   2.380004   0.000000
    11  H    2.074522   4.432754   4.760113   4.118826   2.376217
    12  H    1.036896   2.568788   4.117736   4.758325   4.124536
    13  O    5.009722   2.817038   4.820082   7.048746   7.931082
    14  C    6.188382   4.022554   5.933032   8.209710   9.136598
    15  H    6.765345   4.631607   6.486597   8.761025   9.699057
    16  H    6.756068   4.631601   6.486592   8.761020   9.699052
    17  H    3.423706   2.118639   3.498738   5.197832   5.865575
    18  N    4.215143   3.122874   4.248449   5.801458   6.438345
    19  C    4.633867   3.955446   5.394056   6.726508   6.964895
    20  O    5.764059   5.160000   6.408464   7.631144   7.852992
    21  C    5.305566   4.083185   4.505624   6.045411   7.052829
    22  H    6.079280   5.015631   5.492264   6.874019   7.747945
    23  H    5.786095   4.178236   4.601968   6.418203   7.655964
    24  H    5.165848   4.178238   4.009373   5.309772   6.455325
    25  H    4.162805   3.730481   5.518065   6.788117   6.757519
                   11         12         13         14         15
    11  H    0.000000
    12  H    2.387155   0.000000
    13  O    7.050046   4.816959   0.000000
    14  C    8.210048   5.928688   1.205517   0.000000
    15  H    8.761360   6.482333   1.947234   1.040947   0.000000
    16  H    8.761355   6.482380   1.947227   1.040939   1.802966
    17  H    5.198703   3.495516   3.217386   4.208301   4.340029
    18  N    5.801050   4.243982   3.825283   4.644412   4.553240
    19  C    5.970217   4.411542   4.459113   5.151863   4.941483
    20  O    6.925406   5.546328   5.446377   5.983882   5.593064
    21  C    6.833589   5.514931   4.560615   5.236378   5.007451
    22  H    7.465350   6.213368   5.318779   5.872278   5.490987
    23  H    7.485345   5.997602   4.138930   4.674149   4.396490
    24  H    6.559307   5.556418   5.144267   5.930786   5.818365
    25  H    5.444596   3.739683   4.332323   5.068181   4.979083
                   16         17         18         19         20
    16  H    0.000000
    17  H    5.134142   0.000000
    18  N    5.641077   1.004236   0.000000
    19  C    6.151377   2.029730   1.337389   0.000000
    20  O    7.004418   3.146340   2.258979   1.230002   0.000000
    21  C    6.236975   2.159739   1.453662   2.400626   2.718002
    22  H    6.898117   2.973846   2.061844   2.468603   2.278526
    23  H    5.644118   2.524000   2.063422   3.085079   3.430505
    24  H    6.887200   2.524006   2.063430   3.085087   3.430513
    25  H    5.998528   2.247606   1.994729   1.040307   2.000351
                   21         22         23         24         25
    21  C    0.000000
    22  H    1.036035   0.000000
    23  H    1.038133   1.680322   0.000000
    24  H    1.038144   1.680331   1.682030   0.000000
    25  H    3.311453   3.498000   3.923070   3.923077   0.000000
 Stoichiometry    C9H12FNO2
 Framework group  C1[X(C9H12FNO2)]
 Deg. of freedom    69
 Full point group                 C1      NOp   1
 Largest Abelian subgroup         C1      NOp   1
 Largest concise Abelian subgroup C1      NOp   1
                         Standard orientation:                         
 ---------------------------------------------------------------------
 Center     Atomic      Atomic             Coordinates (Angstroms)
 Number     Number       Type             X           Y           Z
 ---------------------------------------------------------------------
      1          6           0       -1.450266    0.710734   -0.054059
      2          6           0       -2.099668    0.545649    1.110105
      3          6           0       -3.319687   -0.026285    1.125831
      4          6           0       -3.886790   -0.431580   -0.023410
      5          6           0       -3.238792   -0.266852   -1.185057
      6          6           0       -2.030103    0.338194   -1.202511
      7          9           0       -0.194627    1.299367   -0.070245
      8          1           0       -1.662438    0.858126    1.996156
      9          1           0       -3.820456   -0.153586    2.023544
     10          1           0       -4.824768   -0.871296   -0.011319
     11          1           0       -3.675810   -0.579178   -2.070681
     12          1           0       -1.514496    0.434004   -2.097007
     13          8           0        2.355871    2.495019   -0.103122
     14          6           0        3.447398    3.006466   -0.119283
     15          1           0        4.300058    2.416407   -0.027786
     16          1           0        3.537207    4.038291   -0.223331
     17          1           0        1.021253   -0.421384    0.151753
     18          7           0        1.597642   -1.237200    0.255237
     19          6           0        2.015825   -1.890597   -0.834169
     20          8           0        2.723064   -2.895811   -0.786599
     21          6           0        1.995923   -1.735714    1.561373
     22          1           0        2.586188   -2.581803    1.466032
     23          1           0        2.539080   -1.017671    2.078205
     24          1           0        1.162915   -1.983483    2.129221
     25          1           0        1.684891   -1.466077   -1.724396
 ---------------------------------------------------------------------
 Rotational constants (GHZ):           0.7533001           0.3884608           0.3000938
 Standard basis: 6-311++G(d,p) (5D, 7F)
 There are   383 symmetry adapted cartesian basis functions of A   symmetry.
 There are   370 symmetry adapted basis functions of A   symmetry.
   370 basis functions,   576 primitive gaussians,   383 cartesian basis functions
    49 alpha electrons       49 beta electrons
       nuclear repulsion energy       736.0674724164 Hartrees.
 NAtoms=   25 NActive=   25 NUniq=   25 SFac= 1.00D+00 NAtFMM=   60 NAOKFM=F Big=F
 Integral buffers will be    131072 words long.
 Raffenetti 2 integral format.
 Two-electron integral symmetry is turned on.
 ------------------------------------------------------------------------------
 Polarizable Continuum Model (PCM)
 =================================
 Model                : PCM.
 Atomic radii         : UFF (Universal Force Field).
 Polarization charges : Total charges.
 Charge compensation  : None.
 Solution method      : On-the-fly selection.
 Cavity type          : Scaled VdW (van der Waals Surface) (Alpha=1.100).
 Cavity algorithm     : GePol (No added spheres)
                        Default sphere list used, NSphG=   25.
                        Lebedev-Laikov grids with approx.  5.0 points / Ang**2.
                        Smoothing algorithm: York/Karplus (Gamma=1.0000).
                        Polarization charges: spherical gaussians, with
                                              point-specific exponents (IZeta= 3).
                        Self-potential: point-specific (ISelfS= 7).
                        Self-field    : sphere-specific E.n sum rule (ISelfD= 2).
 1st derivatives      : Analytical E(r).r(x)/FMM algorithm (CHGder, D1EAlg=3).
                        Cavity 1st derivative terms included.
 Solvent              : Water, Eps=  78.355300 Eps(inf)=   1.777849
 ------------------------------------------------------------------------------
 One-electron integrals computed using PRISM.
 NBasis=   370 RedAO= T EigKep=  4.84D-06  NBF=   370
 NBsUse=   369 1.00D-06 EigRej=  7.44D-07 NBFU=   369
 Initial guess from the checkpoint file:  "model_H1.chk"
 B after Tr=    -0.000000   -0.000000    0.000000
         Rot=    0.999990    0.000826    0.000127    0.004429 Ang=   0.52 deg.
 ExpMin= 3.60D-02 ExpMax= 1.14D+04 ExpMxC= 1.72D+03 IAcc=3 IRadAn=         5 AccDes= 0.00D+00
 Harris functional with IExCor= 1009 and IRadAn=       5 diagonalized for initial guess.
 HarFok:  IExCor= 1009 AccDes= 0.00D+00 IRadAn=         5 IDoV= 1 UseB2=F ITyADJ=14
 ICtDFT=  3500011 ScaDFX=  1.000000  1.000000  1.000000  1.000000
 FoFCou: FMM=F IPFlag=           0 FMFlag=      100000 FMFlg1=           0
         NFxFlg=           0 DoJE=T BraDBF=F KetDBF=T FulRan=T
         wScrn=  0.000000 ICntrl=       500 IOpCl=  0 I1Cent=   200000004 NGrid=           0
         NMat0=    1 NMatS0=      1 NMatT0=    0 NMatD0=    1 NMtDS0=    0 NMtDT0=    0
 Petite list used in FoFCou.
 Requested convergence on RMS density matrix=1.00D-08 within 128 cycles.
 Requested convergence on MAX density matrix=1.00D-06.
 Requested convergence on             energy=1.00D-06.
 No special actions if energy rises.
 Inv3:  Mode=1 IEnd=    16808067.
 Iteration    1 A*A^-1 deviation from unit magnitude is 1.07D-14 for   2366.
 Iteration    1 A*A^-1 deviation from orthogonality  is 2.07D-15 for   1474     22.
 Iteration    1 A^-1*A deviation from unit magnitude is 1.10D-14 for   2366.
 Iteration    1 A^-1*A deviation from orthogonality  is 2.75D-15 for   2347   1624.
 Error on total polarization charges =  0.01386
 SCF Done:  E(RM062X) =  -655.086296665     A.U. after   13 cycles
            NFock= 13  Conv=0.66D-08     -V/T= 2.0012
 D1PCM: PCM CHGder 1st derivatives, ID1Alg=3 FixD1E=F DoIter=F DoCFld=F I1PDM=0.
 Calling FoFJK, ICntrl=      2127 FMM=F ISym2X=0 I1Cent= 0 IOpClX= 0 NMat=1 NMatS=1 NMatT=0.
 ***** Axes restored to original set *****
 -------------------------------------------------------------------
 Center     Atomic                   Forces (Hartrees/Bohr)
 Number     Number              X              Y              Z
 -------------------------------------------------------------------
      1        6          -0.039039799   -0.004857960   -0.019825673
      2        6          -0.024603348    0.000938523    0.008032879
      3        6          -0.001994825   -0.000003863    0.009389433
      4        6           0.016096365    0.000453895    0.012024455
      5        6           0.004296319   -0.003407038   -0.010269308
      6        6          -0.000180814    0.006584930   -0.026138697
      7        9           0.020447136    0.001666862    0.011915136
      8        1          -0.033874436    0.000349395    0.017892442
      9        1          -0.001730703   -0.000133853    0.037738637
     10        1           0.032875372    0.000542297    0.019099762
     11        1           0.031654768    0.000292354   -0.020600059
     12        1          -0.001410815   -0.001702689   -0.037907047
     13        8           0.003705542    0.000144478    0.002151866
     14        6           0.038676048    0.000045313    0.022566682
     15        1          -0.022101355    0.036264156   -0.012853622
     16        1          -0.022106126   -0.036248586   -0.012855454
     17        1          -0.001801682   -0.005612978    0.001211169
     18        7          -0.001646472    0.015702718   -0.000921964
     19        6          -0.020751307    0.027883208    0.026354995
     20        8           0.004853547   -0.004255954   -0.006988211
     21        6           0.014103232   -0.027342560   -0.014760457
     22        1           0.001086070    0.036047602   -0.014619269
     23        1          -0.037977520   -0.015725770    0.002776875
     24        1           0.019568959   -0.004002279    0.036036394
     25        1           0.021855845   -0.023622203   -0.029450965
 -------------------------------------------------------------------
 Cartesian Forces:  Max     0.039039799 RMS     0.019307338
 -----------------------------------------------------------------------------------------------
                       Internal Coordinate Forces (Hartree/Bohr or radian)
  Cent   Atom   N1       Length/X         N2         Alpha/Y        N3         Beta/Z          J
 -----------------------------------------------------------------------------------------------
      1  C 
      2  C        1   0.073308(     1)
      3  C        2   0.094010(     2)      1   0.200231(    25)
      4  C        3   0.073418(     3)      2   0.195733(    26)      1  -0.010997(    48)     0
      5  C        4   0.030869(     4)      3   0.087119(    27)      2  -0.006832(    49)     0
      6  C        1   0.030496(     5)      2   0.145220(    28)      3  -0.010095(    50)     0
      7  F        1  -0.022870(     6)      2  -0.000002(    29)      3  -0.000184(    51)     0
      8  H        2   0.038282(     7)      1  -0.002824(    30)      6  -0.000593(    52)     0
      9  H        3   0.037739(     8)      2  -0.003388(    31)      1   0.000227(    53)     0
     10  H        4   0.038021(     9)      3  -0.000202(    32)      2  -0.000919(    54)     0
     11  H        5   0.037714(    10)      4   0.003940(    33)      3  -0.000496(    55)     0
     12  H        6   0.037828(    11)      1  -0.002492(    34)      2  -0.005173(    56)     0
     13  O        1   0.002077(    12)      2  -0.000425(    35)      3   0.001554(    57)     0
     14  C       13   0.006361(    13)      1  -0.000013(    36)      2   0.000001(    58)     0
     15  H       14   0.044189(    14)     13   0.007888(    37)      1   0.000110(    59)     0
     16  H       14   0.044178(    15)     13   0.007912(    38)      1  -0.000109(    60)     0
     17  H        7  -0.000776(    16)      1   0.001976(    39)      2  -0.000299(    61)     0
     18  N       17   0.004589(    17)      7   0.000066(    40)      1  -0.000404(    62)     0
     19  C       18   0.010196(    18)     17  -0.029261(    41)      7  -0.000401(    63)     0
     20  O       19  -0.003743(    19)     18   0.020329(    42)     17  -0.000079(    64)     0
     21  C       18   0.002363(    20)     17  -0.032933(    43)     19  -0.000092(    65)     0
     22  H       21   0.038484(    21)     18  -0.011306(    44)     17   0.000023(    66)     0
     23  H       21   0.041157(    22)     18  -0.003593(    45)     17   0.000547(    67)     0
     24  H       21   0.041161(    23)     18  -0.003538(    46)     17  -0.000580(    68)     0
     25  H       19   0.043530(    24)     18   0.005633(    47)     17  -0.000066(    69)     0
 -----------------------------------------------------------------------------------------------
 Internal  Forces:  Max     0.200231245 RMS     0.046648244

 GradGradGradGradGradGradGradGradGradGradGradGradGradGradGradGradGradGrad
 Berny optimization.
 Search for a local minimum.
 Step number   2 out of a maximum of   34
 All quantities printed in internal units (Hartrees-Bohrs-Radians)
 Update second derivatives using D2CorN and points    1    2
 DE= -8.72D-02 DEPred=-9.12D-02 R= 9.57D-01
 TightC=F SS=  1.41D+00  RLast= 3.00D-01 DXNew= 5.0454D-01 9.0000D-01
 Trust test= 9.57D-01 RLast= 3.00D-01 DXMaxT set to 5.05D-01
 ITU=  1  0
     Eigenvalues ---    0.00541   0.03554   0.38251   0.45256   0.47526
     Eigenvalues ---    0.47679   0.47688   0.47688   0.47688   0.47688
     Eigenvalues ---    0.47688   0.47688   0.47688   0.47688   0.47688
     Eigenvalues ---    0.50389   0.59497   0.67179   0.67194   0.70197
     Eigenvalues ---    0.91099   1.04878   1.07886   2.02144
 RFO step:  Lambda=-6.52486675D-03 EMin= 5.40990953D-03
 Quartic linear search produced a step of  1.20614.
 Variable       Old X    -DE/DX   Delta X   Delta X   Delta X     New X
                                 (Linear)    (Quad)   (Total)
    B1        2.53833   0.07331   0.09852  -0.01362   0.08490   2.62322
    B2        2.54644   0.09401   0.10830  -0.03425   0.07406   2.62050
    B3        2.54000   0.07342   0.10053  -0.01728   0.08325   2.62325
    B4        2.53284   0.03087   0.09190  -0.00086   0.09104   2.62388
    B5        2.53106   0.03050   0.08976   0.00207   0.09182   2.62289
    B6        2.62078  -0.02287  -0.02995  -0.05158  -0.08153   2.53926
    B7        1.95831   0.03828   0.08272   0.01384   0.09656   2.05486
    B8        1.95736   0.03774   0.08158   0.01357   0.09515   2.05251
    B9        1.95776   0.03802   0.08206   0.01393   0.09599   2.05375
   B10        1.95736   0.03771   0.08158   0.01346   0.09503   2.05239
   B11        1.95945   0.03783   0.08180   0.01409   0.09589   2.05534
   B12        7.94422   0.00208   0.00888   0.25627   0.26515   8.20937
   B13        2.27810   0.00636   0.01257  -0.00917   0.00341   2.28150
   B14        1.96711   0.04419   0.09333   0.02028   0.11361   2.08072
   B15        1.96709   0.04418   0.09331   0.02027   0.11358   2.08067
   B16        4.00365  -0.00078  -0.00310  -0.02441  -0.02751   3.97614
   B17        1.89773   0.00459   0.00966   0.00218   0.01184   1.90957
   B18        2.52730   0.01020   0.01684   0.00583   0.02267   2.54997
   B19        2.32437  -0.00374   0.00000  -0.00925  -0.00925   2.31512
   B20        2.74702   0.00236   0.00835  -0.00364   0.00470   2.75173
   B21        1.95782   0.03848   0.08213   0.01595   0.09808   2.05591
   B22        1.96179   0.04116   0.08692   0.01890   0.10582   2.06761
   B23        1.96181   0.04116   0.08694   0.01888   0.10582   2.06763
   B24        1.96590   0.04353   0.09187   0.02011   0.11198   2.07788
         Item               Value     Threshold  Converged?
 Maximum Force            0.094010     0.000450     NO 
 RMS     Force            0.040853     0.000300     NO 
 Maximum Displacement     0.265151     0.001800     NO 
 RMS     Displacement     0.098108     0.001200     NO 
 Predicted change in Energy=-2.564359D-02
 GradGradGradGradGradGradGradGradGradGradGradGradGradGradGradGradGradGrad

 ---------------------------------------------------------------------------------------------------
                            Z-MATRIX (ANGSTROMS AND DEGREES)
   CD    Cent   Atom    N1       Length/X        N2       Alpha/Y        N3        Beta/Z          J
 ---------------------------------------------------------------------------------------------------
      1      1  C 
      2      2  C        1   1.388150(     1)
      3      3  C        2   1.386707(     2)      1  120.000(    25)
      4      4  C        3   1.388164(     3)      2  120.000(    26)      1    0.000(    48)      0
      5      5  C        4   1.388496(     4)      3  120.000(    27)      2    0.000(    49)      0
      6      6  C        1   1.387971(     5)      2  119.978(    28)      3    1.717(    50)      0
      7      7  F        1   1.343717(     6)      2  120.000(    29)      3 -180.000(    51)      0
      8      8  H        2   1.087386(     7)      1  120.000(    30)      6 -178.283(    52)      0
      9      9  H        3   1.086142(     8)      2  120.000(    31)      1  180.000(    53)      0
     10     10  H        4   1.086798(     9)      3  120.000(    32)      2  180.000(    54)      0
     11     11  H        5   1.086080(    10)      4  120.000(    33)      3  180.000(    55)      0
     12     12  H        6   1.087639(    11)      1  119.916(    34)      2 -177.772(    56)      0
     13     13  O        1   4.344210(    12)      2  120.000(    35)      3 -180.000(    57)      0
     14     14  C       13   1.207319(    13)      1  179.900(    36)      2  180.000(    58)      0
     15     15  H       14   1.101067(    14)     13  120.000(    37)      1  -90.045(    59)      0
     16     16  H       14   1.101042(    15)     13  120.000(    38)      1   90.045(    60)      0
     17     17  H        7   2.104082(    16)      1  100.000(    39)      2   90.000(    61)      0
     18     18  N       17   1.010500(    17)      7  179.900(    40)      1   90.000(    62)      0
     19     19  C       18   1.349384(    18)     17  119.500(    41)      7    0.000(    63)      0
     20     20  O       19   1.225107(    19)     18  123.200(    42)     17 -180.000(    64)      0
     21     21  C       18   1.456152(    20)     17  121.900(    43)     19 -180.000(    65)      0
     22     22  H       21   1.087939(    21)     18  110.700(    44)     17 -180.000(    66)      0
     23     23  H       21   1.094131(    22)     18  110.700(    45)     17  -60.000(    67)      0
[...]
                 (A) (A) (A) (A) (A) (A) (A) (A) (A) (A) (A) (A)
                 (A) (A) (A) (A) (A) (A) (A) (A) (A) (A) (A) (A)
                 (A) (A) (A) (A) (A) (A) (A) (A) (A) (A) (A) (A)
                 (A) (A) (A) (A) (A) (A) (A) (A) (A) (A) (A) (A)
                 (A) (A) (A) (A) (A) (A) (A) (A) (A) (A) (A) (A)
                 (A) (A) (A) (A) (A) (A) (A) (A) (A) (A) (A) (A)
                 (A) (A) (A) (A) (A) (A) (A) (A) (A) (A) (A) (A)
                 (A) (A) (A) (A) (A) (A) (A) (A) (A) (A) (A) (A)
                 (A) (A) (A) (A) (A) (A) (A) (A) (A) (A) (A) (A)
                 (A) (A) (A) (A) (A) (A) (A) (A) (A) (A) (A) (A)
                 (A) (A) (A) (A) (A) (A) (A) (A) (A) (A) (A) (A)
                 (A) (A) (A) (A) (A) (A) (A) (A) (A) (A) (A) (A)
                 (A) (A) (A) (A) (A) (A) (A) (A) (A) (A) (A) (A)
                 (A) (A) (A) (A) (A) (A) (A) (A) (A) (A) (A) (A)
                 (A) (A) (A) (A) (A) (A) (A) (A) (A) (A) (A) (A)
                 (A) (A) (A) (A) (A) (A) (A) (A) (A) (A) (A) (A)
                 (A) (A) (A) (A) (A) (A) (A) (A) (A)
 The electronic state is 1-A.
 Alpha  occ. eigenvalues --  -25.27422 -19.64633 -19.60037 -14.77853 -10.64631
 Alpha  occ. eigenvalues --  -10.64252 -10.63940 -10.56459 -10.56008 -10.56005
 Alpha  occ. eigenvalues --  -10.55887 -10.55882 -10.55190  -1.39247  -1.19307
 Alpha  occ. eigenvalues --   -1.16927  -1.03519  -0.98120  -0.86393  -0.86027
 Alpha  occ. eigenvalues --   -0.80851  -0.72292  -0.71888  -0.71608  -0.68300
 Alpha  occ. eigenvalues --   -0.64264  -0.63157  -0.58869  -0.58728  -0.58338
 Alpha  occ. eigenvalues --   -0.58191  -0.54431  -0.54037  -0.52811  -0.52509
 Alpha  occ. eigenvalues --   -0.50591  -0.49581  -0.49434  -0.47837  -0.45890
 Alpha  occ. eigenvalues --   -0.45686  -0.44955  -0.43942  -0.41659  -0.34944
 Alpha  occ. eigenvalues --   -0.34739  -0.32643  -0.32577  -0.31608
 Alpha virt. eigenvalues --   -0.00790  -0.00496   0.00276   0.00551   0.00868
 Alpha virt. eigenvalues --    0.01081   0.01694   0.01943   0.02727   0.02922
 Alpha virt. eigenvalues --    0.03766   0.03921   0.04257   0.04933   0.05065
 Alpha virt. eigenvalues --    0.05895   0.06475   0.07312   0.07567   0.08095
 Alpha virt. eigenvalues --    0.08817   0.09006   0.09257   0.10699   0.11019
 Alpha virt. eigenvalues --    0.11110   0.11564   0.12276   0.12949   0.12970
 Alpha virt. eigenvalues --    0.13465   0.13571   0.13684   0.13922   0.14630
 Alpha virt. eigenvalues --    0.14687   0.14926   0.15180   0.15538   0.15920
 Alpha virt. eigenvalues --    0.16348   0.16905   0.17150   0.17274   0.18160
 Alpha virt. eigenvalues --    0.18430   0.19448   0.19679   0.19958   0.20816
 Alpha virt. eigenvalues --    0.20924   0.21786   0.22233   0.22486   0.22820
 Alpha virt. eigenvalues --    0.24450   0.24839   0.25065   0.25557   0.25892
 Alpha virt. eigenvalues --    0.26263   0.27081   0.28029   0.28561   0.29473
 Alpha virt. eigenvalues --    0.30062   0.30480   0.31072   0.31151   0.31305
 Alpha virt. eigenvalues --    0.31790   0.32337   0.32894   0.33642   0.34153
 Alpha virt. eigenvalues --    0.34944   0.35795   0.36578   0.37367   0.38476
 Alpha virt. eigenvalues --    0.40059   0.40357   0.41364   0.41548   0.43093
 Alpha virt. eigenvalues --    0.43625   0.46345   0.48225   0.49651   0.50491
 Alpha virt. eigenvalues --    0.51543   0.53148   0.53350   0.54462   0.55816
 Alpha virt. eigenvalues --    0.57010   0.57976   0.58323   0.58602   0.59165
 Alpha virt. eigenvalues --    0.59553   0.60484   0.60687   0.61567   0.62693
 Alpha virt. eigenvalues --    0.63599   0.64296   0.64618   0.66663   0.68002
 Alpha virt. eigenvalues --    0.68623   0.69134   0.70902   0.71461   0.72335
 Alpha virt. eigenvalues --    0.72772   0.73213   0.76171   0.76525   0.77052
 Alpha virt. eigenvalues --    0.78040   0.79858   0.80859   0.81581   0.82536
 Alpha virt. eigenvalues --    0.85313   0.87578   0.87713   0.89432   0.90603
 Alpha virt. eigenvalues --    0.91391   0.92219   0.93535   0.94618   0.95701
 Alpha virt. eigenvalues --    0.96687   0.97247   1.00063   1.01764   1.04844
 Alpha virt. eigenvalues --    1.05645   1.06559   1.06753   1.07743   1.10510
 Alpha virt. eigenvalues --    1.10989   1.12871   1.13793   1.14496   1.15510
 Alpha virt. eigenvalues --    1.16847   1.18314   1.20414   1.21144   1.23396
 Alpha virt. eigenvalues --    1.23697   1.24309   1.28312   1.33513   1.33758
 Alpha virt. eigenvalues --    1.34840   1.36678   1.41167   1.45181   1.49039
 Alpha virt. eigenvalues --    1.49271   1.50730   1.51169   1.52511   1.52733
 Alpha virt. eigenvalues --    1.55503   1.56457   1.58055   1.58986   1.59549
 Alpha virt. eigenvalues --    1.60227   1.60997   1.61358   1.61987   1.62948
 Alpha virt. eigenvalues --    1.65559   1.68691   1.68819   1.69761   1.70905
 Alpha virt. eigenvalues --    1.71541   1.72503   1.73569   1.77177   1.77835
 Alpha virt. eigenvalues --    1.78196   1.79859   1.80124   1.81125   1.82435
 Alpha virt. eigenvalues --    1.85283   1.86800   1.86912   1.90240   1.91297
 Alpha virt. eigenvalues --    1.94005   1.94710   1.96195   1.96676   1.98800
 Alpha virt. eigenvalues --    1.99398   2.00854   2.04143   2.04732   2.06498
 Alpha virt. eigenvalues --    2.09216   2.09394   2.09903   2.11124   2.17321
 Alpha virt. eigenvalues --    2.18312   2.21472   2.29505   2.30407   2.34038
 Alpha virt. eigenvalues --    2.35024   2.42485   2.44120   2.45065   2.47632
 Alpha virt. eigenvalues --    2.48946   2.49644   2.50208   2.51050   2.52406
 Alpha virt. eigenvalues --    2.52803   2.53077   2.55967   2.58209   2.62848
 Alpha virt. eigenvalues --    2.64610   2.64903   2.65935   2.69768   2.70646
 Alpha virt. eigenvalues --    2.72329   2.72915   2.73961   2.73985   2.74206
 Alpha virt. eigenvalues --    2.76711   2.77325   2.79014   2.85073   2.85269
 Alpha virt. eigenvalues --    2.86108   2.87121   2.88708   2.89144   2.91438
 Alpha virt. eigenvalues --    2.94292   2.94372   2.95488   2.97684   2.98328
 Alpha virt. eigenvalues --    2.99294   3.00137   3.02274   3.13830   3.18533
 Alpha virt. eigenvalues --    3.21083   3.26318   3.38607   3.39431   3.41612
 Alpha virt. eigenvalues --    3.43041   3.43727   3.48025   3.53343   3.56017
 Alpha virt. eigenvalues --    3.56471   3.60410   3.65157   3.65569   3.74590
 Alpha virt. eigenvalues --    3.76076   3.79471   3.80395   3.86809   3.88617
 Alpha virt. eigenvalues --    3.95539   3.96474   4.01190   4.02678   4.03443
 Alpha virt. eigenvalues --    4.06570   4.09005   4.15983   4.19246   4.20320
 Alpha virt. eigenvalues --    4.85463   4.92821   4.95991   5.00346   5.09848
 Alpha virt. eigenvalues --    5.16578   5.21522   5.31213   5.78612   5.85052
 Alpha virt. eigenvalues --    6.55418   6.59595   6.89125  23.66940  23.97917
 Alpha virt. eigenvalues --   23.99612  24.00787  24.03437  24.05285  24.15307
 Alpha virt. eigenvalues --   24.17038  24.26934  35.68497  50.03906  50.10241
 Alpha virt. eigenvalues --   66.94610
          Condensed to atoms (all electrons):
               1          2          3          4          5          6
     1  C   14.995966  -6.170365   3.924773  -4.371005   4.200299  -6.182219
     2  C   -6.170365  13.948426  -3.892808   3.688299  -3.900077   1.753598
     3  C    3.924773  -3.892808   9.846895  -3.508359   3.717584  -3.863688
     4  C   -4.371005   3.688299  -3.508359   9.784658  -3.772127   3.905182
     5  C    4.200299  -3.900077   3.717584  -3.772127  10.405121  -4.388815
     6  C   -6.182219   1.753598  -3.863688   3.905182  -4.388815  14.182981
     7  F    0.732907  -0.424208   0.074674  -0.048706   0.057845  -0.404250
     8  H   -0.316922   0.702432  -0.157117   0.116470  -0.095454   0.057534
     9  H    0.109461  -0.091704   0.401491  -0.104865   0.043723  -0.027884
    10  H   -0.045625   0.038611  -0.069247   0.441957  -0.080813   0.048184
    11  H    0.135857  -0.042792   0.066304  -0.145201   0.460985  -0.143765
    12  H   -0.416187   0.098659  -0.129897   0.173527  -0.245564   0.810574
    13  O    0.007064  -0.002907  -0.001137   0.000158  -0.001106  -0.000892
    14  C    0.001797  -0.001666   0.000613  -0.000224   0.000579  -0.001606
    15  H    0.000204  -0.000021  -0.000063   0.000025  -0.000087  -0.000020
    16  H   -0.000416   0.000124   0.000076  -0.000030   0.000121  -0.000074
    17  H   -0.023808   0.019644  -0.021851   0.021104  -0.011598  -0.001337
    18  N   -0.018371  -0.001188   0.008543   0.005342  -0.003296   0.024821
    19  C    0.029732  -0.031317   0.004478  -0.002643   0.000408   0.012440
    20  O    0.001662  -0.000350  -0.000042  -0.000393   0.001328  -0.002034
    21  C   -0.032299   0.048401  -0.017540   0.007481  -0.008580  -0.003952
    22  H    0.005437  -0.001915   0.001979  -0.001187   0.000770  -0.003162
    23  H    0.006995  -0.006109  -0.000472  -0.000701  -0.000183   0.001624
    24  H    0.002884   0.004451   0.000544  -0.000408   0.002962  -0.006835
    25  H    0.035140  -0.003505   0.001932  -0.003954  -0.002824  -0.014089
               7          8          9         10         11         12
     1  C    0.732907  -0.316922   0.109461  -0.045625   0.135857  -0.416187
     2  C   -0.424208   0.702432  -0.091704   0.038611  -0.042792   0.098659
     3  C    0.074674  -0.157117   0.401491  -0.069247   0.066304  -0.129897
     4  C   -0.048706   0.116470  -0.104865   0.441957  -0.145201   0.173527
     5  C    0.057845  -0.095454   0.043723  -0.080813   0.460985  -0.245564
     6  C   -0.404250   0.057534  -0.027884   0.048184  -0.143765   0.810574
     7  F    9.146476  -0.027627   0.000944  -0.000397   0.000359  -0.021212
     8  H   -0.027627   0.461104  -0.006412   0.002526  -0.000984   0.004954
     9  H    0.000944  -0.006412   0.432722  -0.001710   0.001492  -0.001297
    10  H   -0.000397   0.002526  -0.001710   0.440980  -0.004081   0.004181
    11  H    0.000359  -0.000984   0.001492  -0.004081   0.440409  -0.014476
    12  H   -0.021212   0.004954  -0.001297   0.004181  -0.014476   0.490022
    13  O    0.002418   0.000669  -0.000012   0.000000  -0.000014   0.000727
    14  C   -0.000294  -0.000295   0.000009  -0.000002   0.000010  -0.000351
    15  H   -0.000152  -0.000006  -0.000001   0.000000  -0.000001  -0.000009
    16  H   -0.000102  -0.000001   0.000001  -0.000000   0.000002  -0.000021
    17  H    0.087513  -0.001739  -0.000352  -0.000240  -0.000576   0.003212
    18  N   -0.027049  -0.001647  -0.000010   0.000133  -0.000211   0.001250
    19  C   -0.010582   0.000548   0.000174   0.000014  -0.000232  -0.001526
    20  O    0.000008   0.000102  -0.000005  -0.000010   0.000041  -0.000030
    21  C   -0.003099   0.003063  -0.000613   0.000163  -0.000118   0.000233
    22  H   -0.000744   0.000058   0.000077  -0.000017   0.000048  -0.000266
    23  H   -0.001162  -0.000625   0.000138  -0.000008   0.000005   0.000081
    24  H    0.000953  -0.000757  -0.000487  -0.000031   0.000063  -0.000437
    25  H   -0.002575   0.000329   0.000059  -0.000112   0.000436  -0.006018
              13         14         15         16         17         18
     1  C    0.007064   0.001797   0.000204  -0.000416  -0.023808  -0.018371
     2  C   -0.002907  -0.001666  -0.000021   0.000124   0.019644  -0.001188
     3  C   -0.001137   0.000613  -0.000063   0.000076  -0.021851   0.008543
     4  C    0.000158  -0.000224   0.000025  -0.000030   0.021104   0.005342
     5  C   -0.001106   0.000579  -0.000087   0.000121  -0.011598  -0.003296
     6  C   -0.000892  -0.001606  -0.000020  -0.000074  -0.001337   0.024821
     7  F    0.002418  -0.000294  -0.000152  -0.000102   0.087513  -0.027049
     8  H    0.000669  -0.000295  -0.000006  -0.000001  -0.001739  -0.001647
     9  H   -0.000012   0.000009  -0.000001   0.000001  -0.000352  -0.000010
    10  H    0.000000  -0.000002   0.000000  -0.000000  -0.000240   0.000133
    11  H   -0.000014   0.000010  -0.000001   0.000002  -0.000576  -0.000211
    12  H    0.000727  -0.000351  -0.000009  -0.000021   0.003212   0.001250
    13  O    8.145014   0.296826  -0.081432  -0.083042   0.021735  -0.002224
    14  C    0.296826   4.871591   0.396328   0.401428  -0.005072   0.001125
    15  H   -0.081432   0.396328   0.642167  -0.097908   0.000462  -0.000095
    16  H   -0.083042   0.401428  -0.097908   0.645595   0.000114   0.000257
    17  H    0.021735  -0.005072   0.000462   0.000114   0.522348   0.311894
    18  N   -0.002224   0.001125  -0.000095   0.000257   0.311894   7.108485
    19  C   -0.003277   0.000096   0.000260  -0.000226  -0.086641   0.168004
    20  O    0.000043  -0.000109   0.000061  -0.000021   0.007605  -0.166663
    21  C   -0.001793   0.000939  -0.000103   0.000008  -0.055585   0.125931
    22  H    0.000028   0.000149  -0.000190   0.000022  -0.021477  -0.093361
    23  H   -0.000291  -0.000107  -0.000071  -0.000059  -0.002419  -0.045443
    24  H   -0.000060  -0.000113   0.000102  -0.000042   0.013201  -0.049294
    25  H   -0.000793  -0.000040   0.000271  -0.000144  -0.009490  -0.196196
              19         20         21         22         23         24
     1  C    0.029732   0.001662  -0.032299   0.005437   0.006995   0.002884
     2  C   -0.031317  -0.000350   0.048401  -0.001915  -0.006109   0.004451
     3  C    0.004478  -0.000042  -0.017540   0.001979  -0.000472   0.000544
     4  C   -0.002643  -0.000393   0.007481  -0.001187  -0.000701  -0.000408
     5  C    0.000408   0.001328  -0.008580   0.000770  -0.000183   0.002962
     6  C    0.012440  -0.002034  -0.003952  -0.003162   0.001624  -0.006835
     7  F   -0.010582   0.000008  -0.003099  -0.000744  -0.001162   0.000953
     8  H    0.000548   0.000102   0.003063   0.000058  -0.000625  -0.000757
     9  H    0.000174  -0.000005  -0.000613   0.000077   0.000138  -0.000487
    10  H    0.000014  -0.000010   0.000163  -0.000017  -0.000008  -0.000031
    11  H   -0.000232   0.000041  -0.000118   0.000048   0.000005   0.000063
    12  H   -0.001526  -0.000030   0.000233  -0.000266   0.000081  -0.000437
    13  O   -0.003277   0.000043  -0.001793   0.000028  -0.000291  -0.000060
    14  C    0.000096  -0.000109   0.000939   0.000149  -0.000107  -0.000113
    15  H    0.000260   0.000061  -0.000103  -0.000190  -0.000071   0.000102
    16  H   -0.000226  -0.000021   0.000008   0.000022  -0.000059  -0.000042
    17  H   -0.086641   0.007605  -0.055585  -0.021477  -0.002419   0.013201
    18  N    0.168004  -0.166663   0.125931  -0.093361  -0.045443  -0.049294
    19  C    4.965785   0.448293  -0.055471   0.025657  -0.008343  -0.006183
    20  O    0.448293   8.242964  -0.026871   0.030333  -0.002149  -0.003586
    21  C   -0.055471  -0.026871   5.256455   0.426862   0.413652   0.396802
    22  H    0.025657   0.030333   0.426862   0.480866  -0.026308  -0.025755
    23  H   -0.008343  -0.002149   0.413652  -0.026308   0.542345  -0.056156
    24  H   -0.006183  -0.003586   0.396802  -0.025755  -0.056156   0.549911
    25  H    0.443266  -0.036075   0.000407   0.009490  -0.002147  -0.001842
              25
     1  C    0.035140
     2  C   -0.003505
     3  C    0.001932
     4  C   -0.003954
     5  C   -0.002824
     6  C   -0.014089
     7  F   -0.002575
     8  H    0.000329
     9  H    0.000059
    10  H   -0.000112
    11  H    0.000436
    12  H   -0.006018
    13  O   -0.000793
    14  C   -0.000040
    15  H    0.000271
    16  H   -0.000144
    17  H   -0.009490
    18  N   -0.196196
    19  C    0.443266
    20  O   -0.036075
    21  C    0.000407
    22  H    0.009490
    23  H   -0.002147
    24  H   -0.001842
    25  H    0.632348
 Mulliken charges:
               1
     1  C   -0.612962
     2  C    0.268287
     3  C   -0.387666
     4  C   -0.184396
     5  C   -0.381201
     6  C    0.247682
     7  F   -0.131940
     8  H    0.259798
     9  H    0.245062
    10  H    0.225544
    11  H    0.246440
    12  H    0.249871
    13  O   -0.295702
    14  C    0.038389
    15  H    0.140274
    16  H    0.134339
    17  H    0.233353
    18  N   -0.150737
    19  C    0.107285
    20  O   -0.494101
    21  C   -0.474371
    22  H    0.192605
    23  H    0.187912
    24  H    0.180112
    25  H    0.156125
 Sum of Mulliken charges =  -0.00000
 Mulliken charges with hydrogens summed into heavy atoms:
               1
     1  C   -0.612962
     2  C    0.528085
     3  C   -0.142604
     4  C    0.041147
     5  C   -0.134762
     6  C    0.497553
     7  F   -0.131940
    13  O   -0.295702
    14  C    0.313001
    18  N    0.082616
    19  C    0.263411
    20  O   -0.494101
    21  C    0.086258
 Electronic spatial extent (au):  <R**2>=           4112.6022
 Charge=              0.0000 electrons
 Dipole moment (field-independent basis, Debye):
    X=             -1.6603    Y=              4.7057    Z=              1.6498  Tot=              5.2557
 Quadrupole moment (field-independent basis, Debye-Ang):
   XX=            -52.4837   YY=            -95.0408   ZZ=            -67.0541
   XY=             24.8334   XZ=              3.7287   YZ=             -5.3755
 Traceless Quadrupole moment (field-independent basis, Debye-Ang):
   XX=             19.0425   YY=            -23.5146   ZZ=              4.4721
   XY=             24.8334   XZ=              3.7287   YZ=             -5.3755
 Octapole moment (field-independent basis, Debye-Ang**2):
  XXX=             86.6830  YYY=            103.4148  ZZZ=             -0.2314  XYY=             10.9458
  XXY=             94.5010  XXZ=             10.4032  XZZ=             -4.7644  YZZ=              3.8878
  YYZ=             23.5593  XYZ=            -20.9661
 Hexadecapole moment (field-independent basis, Debye-Ang**3):
 XXXX=          -2592.0674 YYYY=          -1654.7832 ZZZZ=           -462.5411 XXXY=            547.2305
 XXXZ=              3.6966 YYYX=            361.2505 YYYZ=            -88.1464 ZZZX=              1.4726
 ZZZY=              0.5761 XXYY=           -756.9118 XXZZ=           -603.7385 YYZZ=           -338.0460
 XXYZ=            -36.4613 YYXZ=             47.5345 ZZXY=             10.9821
 N-N= 7.123667575398D+02 E-N=-2.958823120008D+03  KE= 6.527843539546D+02
 1\1\GINC-R820\POpt\RM062X\6-311++G(d,p)\C9H12F1N1O2\ZJXU\28-Mar-2024\1
 \\# opt=z-matrix 6-311++g(d,p) m062x scrf=(solvent=water)\\test\\0,1\C
 \C,1,B1\C,2,B2,1,120.00000011\C,3,B3,2,120.,1,0.,0\C,4,B4,3,119.999999
 89,2,0.,0\C,1,B5,2,119.97770821,3,1.71722694,0\F,1,B6,2,119.9999999,3,
 -180.,0\H,2,B7,1,120.00000011,6,-178.28277306,0\H,3,B8,2,120.00000011,
 1,180.,0\H,4,B9,3,120.,2,180.,0\H,5,B10,4,120.00000011,3,180.,0\H,6,B1
 1,1,119.91553063,2,-177.77151684,0\O,1,B12,2,119.9999999,3,-180.,0\C,1
 3,B13,1,179.90000005,2,180.,0\H,14,B14,13,119.99996989,1,-90.04490481,
 0\H,14,B15,13,119.99996989,1,90.04490481,0\H,7,B16,1,100.00000001,2,90
 .,0\N,17,B17,7,179.9,1,90.,0\C,18,B18,17,119.5,7,0.,0\O,19,B19,18,123.
 2,17,-180.,0\C,18,B20,17,121.9,19,-180.,0\H,21,B21,18,110.7,17,-180.,0
 \H,21,B22,18,110.7,17,-60.,0\H,21,B23,18,110.7,17,60.,0\H,19,B24,18,11
 3.46721803,17,0.,0\\B1=1.3884251\B2=1.39088582\B3=1.38804136\B4=1.3880
 685\B5=1.38851809\B6=1.35047438\B7=1.08402453\B8=1.08268268\B9=1.08321
 036\B10=1.08269466\B11=1.0841097\B12=4.89860921\B13=1.20484644\B14=1.1
 0056584\B15=1.10058335\B16=2.1076812\B17=1.00864566\B18=1.34959693\B19
 =1.22302726\B20=1.45341395\B21=1.08458143\B22=1.09182299\B23=1.0918970
 1\B24=1.09890887\\Version=ES64L-G16RevB.01\State=1-A\HF=-655.1212363\R
 MSD=3.160e-09\RMSF=4.930e-03\Dipole=-0.3856563,-1.8796643,0.7705306\Qu
 adrupole=18.8529652,-23.9804856,5.1275204,0.8559311,7.575983,9.3050542
 \PG=C01 [X(C9H12F1N1O2)]\\@


 THE REASON MAN'S BEST FRIEND IS A DOG IS BECAUSE
 HE WAGS HIS TAIL INSTEAD OF HIS TONGUE.
 Job cpu time:       0 days  7 hours  9 minutes 19.0 seconds.
 Elapsed time:       0 days  3 hours 34 minutes 43.1 seconds.
 File lengths (MBytes):  RWF=    261 Int=      0 D2E=      0 Chk=     16 Scr=      1
 Normal termination of Gaussian 16 at Thu Mar 28 17:59:36 2024.
