 Entering Gaussian System, Link 0=g16
 Input=model_H3-3.gjf
 Output=model_H3-3.log
 Initial command:
 /home/zjxu/prog/g16/l1.exe "/home/zjxu/zjhan/5_model/amide/water/Gau-47659.inp" -scrdir="/home/zjxu/zjhan/5_model/amide/water/"
 Entering Link 1 = /home/zjxu/prog/g16/l1.exe PID=     47660.
  
 Copyright (c) 1988-2017, Gaussian, Inc.  All Rights Reserved.
  
 This is part of the Gaussian(R) 16 program.  It is based on
 the Gaussian(R) 09 system (copyright 2009, Gaussian, Inc.),
 the Gaussian(R) 03 system (copyright 2003, Gaussian, Inc.),
 the Gaussian(R) 98 system (copyright 1998, Gaussian, Inc.),
 the Gaussian(R) 94 system (copyright 1995, Gaussian, Inc.),
 the Gaussian 92(TM) system (copyright 1992, Gaussian, Inc.),
 the Gaussian 90(TM) system (copyright 1990, Gaussian, Inc.),
 the Gaussian 88(TM) system (copyright 1988, Gaussian, Inc.),
 the Gaussian 86(TM) system (copyright 1986, Carnegie Mellon
 University), and the Gaussian 82(TM) system (copyright 1983,
 Carnegie Mellon University). Gaussian is a federally registered
 trademark of Gaussian, Inc.
  
 This software contains proprietary and confidential information,
 including trade secrets, belonging to Gaussian, Inc.
  
 This software is provided under written license and may be
 used, copied, transmitted, or stored only in accord with that
 written license.
  
 The following legend is applicable only to US Government
 contracts under FAR:
  
                    RESTRICTED RIGHTS LEGEND
  
 Use, reproduction and disclosure by the US Government is
 subject to restrictions as set forth in subparagraphs (a)
 and (c) of the Commercial Computer Software - Restricted
 Rights clause in FAR 52.227-19.
  
 Gaussian, Inc.
 340 Quinnipiac St., Bldg. 40, Wallingford CT 06492
  
  
 ---------------------------------------------------------------
 Warning -- This program may not be used in any manner that
 competes with the business of Gaussian, Inc. or will provide
 assistance to any competitor of Gaussian, Inc.  The licensee
 of this program is prohibited from giving any competitor of
 Gaussian, Inc. access to this program.  By using this program,
 the user acknowledges that Gaussian, Inc. is engaged in the
 business of creating and licensing software in the field of
 computational chemistry and represents and warrants to the
 licensee that it is not a competitor of Gaussian, Inc. and that
 it will not use this program in any manner prohibited above.
 ---------------------------------------------------------------
  

 Cite this work as:
 Gaussian 16, Revision B.01,
 M. J. Frisch, G. W. Trucks, H. B. Schlegel, G. E. Scuseria, 
 M. A. Robb, J. R. Cheeseman, G. Scalmani, V. Barone, 
 G. A. Petersson, H. Nakatsuji, X. Li, M. Caricato, A. V. Marenich, 
 J. Bloino, B. G. Janesko, R. Gomperts, B. Mennucci, H. P. Hratchian, 
 J. V. Ortiz, A. F. Izmaylov, J. L. Sonnenberg, D. Williams-Young, 
 F. Ding, F. Lipparini, F. Egidi, J. Goings, B. Peng, A. Petrone, 
 T. Henderson, D. Ranasinghe, V. G. Zakrzewski, J. Gao, N. Rega, 
 G. Zheng, W. Liang, M. Hada, M. Ehara, K. Toyota, R. Fukuda, 
 J. Hasegawa, M. Ishida, T. Nakajima, Y. Honda, O. Kitao, H. Nakai, 
 T. Vreven, K. Throssell, J. A. Montgomery, Jr., J. E. Peralta, 
 F. Ogliaro, M. J. Bearpark, J. J. Heyd, E. N. Brothers, K. N. Kudin, 
 V. N. Staroverov, T. A. Keith, R. Kobayashi, J. Normand, 
 K. Raghavachari, A. P. Rendell, J. C. Burant, S. S. Iyengar, 
 J. Tomasi, M. Cossi, J. M. Millam, M. Klene, C. Adamo, R. Cammi, 
 J. W. Ochterski, R. L. Martin, K. Morokuma, O. Farkas, 
 J. B. Foresman, and D. J. Fox, Gaussian, Inc., Wallingford CT, 2016.
 
 ******************************************
 Gaussian 16:  ES64L-G16RevB.01 20-Dec-2017
                29-Mar-2024 
 ******************************************
 %mem=4GB
 %nprocshared=4
 Will use up to    4 processors via shared memory.
 %chk=model_H3-3.chk
 ------------------------------------------------------------------
 # opt=(z-matrix,recalc=5) 6-311++g(d,p) m062x scrf=(solvent=water)
 ------------------------------------------------------------------
 1/10=7,18=40,26=3,38=1,71=5/1,3;
 2/12=2,17=6,18=5,29=3,40=1/2;
 3/5=4,6=6,7=1111,11=2,25=1,30=1,70=2201,71=2,72=1,74=-55,140=1/1,2,3;
 4//1;
 5/5=2,38=5,53=1/2;
 8/6=4,10=90,11=11/1;
 11/6=1,8=1,9=11,15=111,16=1/1,2,10;
 10/6=1/2;
 6/7=2,8=2,9=2,10=2,28=1/1;
 7/10=1,25=1/1,2,3,16;
 1/10=7,18=40,26=3,71=5/3(3);
 2/29=3/2;
 7/9=1,25=1,44=-1/16;
 99//99;
 2/29=3/2;
 3/5=4,6=6,7=1111,11=2,25=1,30=1,70=2205,71=2,72=1,74=-55,140=1/1,2,3;
 4/5=5,16=3,69=1/1;
 5/5=2,38=5,53=1/2;
 8/6=4,10=90,11=11/1;
 11/6=1,8=1,9=11,15=111,16=1/1,2,10;
 10/6=1/2;
 7/10=1,25=1/1,2,3,16;
 1/18=40,26=3,71=5/3(-8);
 2/29=3/2;
 6/7=2,8=2,9=2,10=2,19=2,28=1/1;
 7/9=1,25=1,44=-1/16;
 99/9=1/99;
 ----
 test
 ----
 Symbolic Z-matrix:
 Charge =  0 Multiplicity = 1
 C
 C                    1    B1
 C                    2    B2       1     120. 
 C                    3    B3       2     120.     1     0.       0
 C                    4    B4       3     120.     2     0.       0
 C                    1    B5       2     119.97771  3     1.71723  0
 F                    1    B6       2     120.     3    -180.     0
 H                    2    B7       1     120.     6    -178.28277  0
 H                    3    B8       2     120.     1     180.     0
 H                    4    B9       3     120.     2     180.     0
 H                    5    B10      4     120.     3     180.     0
 H                    6    B11      1     119.91553  2    -177.77152  0
 O                    1    B12      2     120.     3    -180.     0
 C                    13   B13      1     179.9    2     180.     0
 H                    14   B14      13    119.99997  1    -90.0449  0
 H                    14   B15      13    119.99997  1     90.0449  0
 H                    7    B16      1     100.     2     90.      0
 N                    17   B17      7     179.9    1     90.      0
 C                    18   B18      17    119.5    7     0.       0
 O                    19   B19      18    123.2    17   -180.     0
 C                    18   B20      17    121.9    19   -180.     0
 H                    21   B21      18    110.7    17   -180.     0
 H                    21   B22      18    110.7    17   -60.      0
 H                    21   B23      18    110.7    17    60.      0
 H                    19   B24      18    113.46722  17    0.       0
 H                    7    B25      1     100.     2    -30.      0
 N                    26   B26      7     179.9    1    -30.      0
 C                    27   B27      26    119.5    7     120.     0
 O                    28   B28      27    123.2    26   -180.     0
 C                    27   B29      26    121.9    28   -180.     0
 H                    30   B30      27    110.7    26    180.     0
 H                    30   B31      27    110.7    26   -60.      0
 H                    30   B32      27    110.7    26    60.      0
 H                    28   B33      27    113.46722  26    0.       0
 H                    7    B34      1     100.     2    -150.     0
 N                    35   B35      7     179.9    1    -150.     0
 C                    36   B36      35    119.5    7     60.      0
 O                    37   B37      36    123.2    35   -180.     0
 C                    36   B38      35    121.9    37   -180.     0
 H                    39   B39      36    110.7    35    180.     0
 H                    39   B40      36    110.7    35   -60.      0
 H                    39   B41      36    110.7    35    60.      0
 H                    37   B42      36    113.46722  35    0.       0
       Variables:
  B1                    1.3                      
  B2                    1.3                      
  B3                    1.3                      
  B4                    1.3                      
  B5                    1.3                      
  B6                    1.4                      
  B7                    1.                       
  B8                    1.                       
  B9                    1.                       
  B10                   1.                       
  B11                   1.00101                  
  B12                   4.2                      
  B13                   1.2                      
  B14                   1.                       
  B15                   1.                       
  B16                   2.12                     
  B17                   1.                       
  B18                   1.33                     
  B19                   1.23                     
  B20                   1.45                     
  B21                   1.                       
  B22                   1.                       
  B23                   1.                       
  B24                   1.                       
  B25                   2.12                     
  B26                   1.                       
  B27                   1.33                     
  B28                   1.23                     
  B29                   1.45                     
  B30                   1.                       
  B31                   1.                       
  B32                   1.                       
  B33                   1.                       
  B34                   2.12                     
  B35                   1.                       
  B36                   1.33                     
  B37                   1.23                     
  B38                   1.45                     
  B39                   1.                       
  B40                   1.                       
  B41                   1.                       
  B42                   1.                       
 

 GradGradGradGradGradGradGradGradGradGradGradGradGradGradGradGradGradGrad
 Berny optimization.
 Initialization pass.
                       ----------------------------
                       !    Initial Parameters    !
                       ! (Angstroms and Degrees)  !
 ----------------------                            ----------------------
 !      Name          Value   Derivative information (Atomic Units)     !
 ------------------------------------------------------------------------
 !       B1          1.3      calculate D2E/DX2 analytically            !
 !       B2          1.3      calculate D2E/DX2 analytically            !
 !       B3          1.3      calculate D2E/DX2 analytically            !
 !       B4          1.3      calculate D2E/DX2 analytically            !
 !       B5          1.3      calculate D2E/DX2 analytically            !
 !       B6          1.4      calculate D2E/DX2 analytically            !
 !       B7          1.0      calculate D2E/DX2 analytically            !
 !       B8          1.0      calculate D2E/DX2 analytically            !
 !       B9          1.0      calculate D2E/DX2 analytically            !
 !       B10         1.0      calculate D2E/DX2 analytically            !
 !       B11         1.001    calculate D2E/DX2 analytically            !
 !       B12         4.2      calculate D2E/DX2 analytically            !
 !       B13         1.2      calculate D2E/DX2 analytically            !
 !       B14         1.0      calculate D2E/DX2 analytically            !
 !       B15         1.0      calculate D2E/DX2 analytically            !
 !       B16         2.12     calculate D2E/DX2 analytically            !
 !       B17         1.0      calculate D2E/DX2 analytically            !
 !       B18         1.33     calculate D2E/DX2 analytically            !
 !       B19         1.23     calculate D2E/DX2 analytically            !
 !       B20         1.45     calculate D2E/DX2 analytically            !
 !       B21         1.0      calculate D2E/DX2 analytically            !
 !       B22         1.0      calculate D2E/DX2 analytically            !
 !       B23         1.0      calculate D2E/DX2 analytically            !
 !       B24         1.0      calculate D2E/DX2 analytically            !
 !       B25         2.12     calculate D2E/DX2 analytically            !
 !       B26         1.0      calculate D2E/DX2 analytically            !
 !       B27         1.33     calculate D2E/DX2 analytically            !
 !       B28         1.23     calculate D2E/DX2 analytically            !
 !       B29         1.45     calculate D2E/DX2 analytically            !
 !       B30         1.0      calculate D2E/DX2 analytically            !
 !       B31         1.0      calculate D2E/DX2 analytically            !
 !       B32         1.0      calculate D2E/DX2 analytically            !
 !       B33         1.0      calculate D2E/DX2 analytically            !
 !       B34         2.12     calculate D2E/DX2 analytically            !
 !       B35         1.0      calculate D2E/DX2 analytically            !
 !       B36         1.33     calculate D2E/DX2 analytically            !
 !       B37         1.23     calculate D2E/DX2 analytically            !
 !       B38         1.45     calculate D2E/DX2 analytically            !
 !       B39         1.0      calculate D2E/DX2 analytically            !
 !       B40         1.0      calculate D2E/DX2 analytically            !
 !       B41         1.0      calculate D2E/DX2 analytically            !
 !       B42         1.0      calculate D2E/DX2 analytically            !
 ------------------------------------------------------------------------
 Trust Radius=3.00D-01 FncErr=1.00D-07 GrdErr=1.00D-06 EigMax=2.50D+02 EigMin=1.00D-04
 Number of steps in this run=     52 maximum allowed number of steps=    100.
 GradGradGradGradGradGradGradGradGradGradGradGradGradGradGradGradGradGrad

 ---------------------------------------------------------------------------------------------------
                            Z-MATRIX (ANGSTROMS AND DEGREES)
   CD    Cent   Atom    N1       Length/X        N2       Alpha/Y        N3        Beta/Z          J
 ---------------------------------------------------------------------------------------------------
      1      1  C 
      2      2  C        1   1.300000(     1)
      3      3  C        2   1.300000(     2)      1  120.000(    43)
      4      4  C        3   1.300000(     3)      2  120.000(    44)      1    0.000(    84)      0
      5      5  C        4   1.300000(     4)      3  120.000(    45)      2    0.000(    85)      0
      6      6  C        1   1.300000(     5)      2  119.978(    46)      3    1.717(    86)      0
      7      7  F        1   1.400000(     6)      2  120.000(    47)      3 -180.000(    87)      0
      8      8  H        2   1.000000(     7)      1  120.000(    48)      6 -178.283(    88)      0
      9      9  H        3   1.000000(     8)      2  120.000(    49)      1  180.000(    89)      0
     10     10  H        4   1.000000(     9)      3  120.000(    50)      2  180.000(    90)      0
     11     11  H        5   1.000000(    10)      4  120.000(    51)      3  180.000(    91)      0
     12     12  H        6   1.001007(    11)      1  119.916(    52)      2 -177.772(    92)      0
     13     13  O        1   4.200000(    12)      2  120.000(    53)      3 -180.000(    93)      0
     14     14  C       13   1.200000(    13)      1  179.900(    54)      2  180.000(    94)      0
     15     15  H       14   1.000000(    14)     13  120.000(    55)      1  -90.045(    95)      0
     16     16  H       14   1.000000(    15)     13  120.000(    56)      1   90.045(    96)      0
     17     17  H        7   2.120000(    16)      1  100.000(    57)      2   90.000(    97)      0
     18     18  N       17   1.000000(    17)      7  179.900(    58)      1   90.000(    98)      0
     19     19  C       18   1.330000(    18)     17  119.500(    59)      7    0.000(    99)      0
     20     20  O       19   1.230000(    19)     18  123.200(    60)     17 -180.000(   100)      0
     21     21  C       18   1.450000(    20)     17  121.900(    61)     19 -180.000(   101)      0
     22     22  H       21   1.000000(    21)     18  110.700(    62)     17 -180.000(   102)      0
     23     23  H       21   1.000000(    22)     18  110.700(    63)     17  -60.000(   103)      0
     24     24  H       21   1.000000(    23)     18  110.700(    64)     17   60.000(   104)      0
     25     25  H       19   1.000000(    24)     18  113.467(    65)     17    0.000(   105)      0
     26     26  H        7   2.120000(    25)      1  100.000(    66)      2  -30.000(   106)      0
     27     27  N       26   1.000000(    26)      7  179.900(    67)      1  -30.000(   107)      0
     28     28  C       27   1.330000(    27)     26  119.500(    68)      7  120.000(   108)      0
     29     29  O       28   1.230000(    28)     27  123.200(    69)     26 -180.000(   109)      0
     30     30  C       27   1.450000(    29)     26  121.900(    70)     28 -180.000(   110)      0
     31     31  H       30   1.000000(    30)     27  110.700(    71)     26  180.000(   111)      0
     32     32  H       30   1.000000(    31)     27  110.700(    72)     26  -60.000(   112)      0
     33     33  H       30   1.000000(    32)     27  110.700(    73)     26   60.000(   113)      0
     34     34  H       28   1.000000(    33)     27  113.467(    74)     26    0.000(   114)      0
     35     35  H        7   2.120000(    34)      1  100.000(    75)      2 -150.000(   115)      0
     36     36  N       35   1.000000(    35)      7  179.900(    76)      1 -150.000(   116)      0
     37     37  C       36   1.330000(    36)     35  119.500(    77)      7   60.000(   117)      0
     38     38  O       37   1.230000(    37)     36  123.200(    78)     35 -180.000(   118)      0
     39     39  C       36   1.450000(    38)     35  121.900(    79)     37 -180.000(   119)      0
     40     40  H       39   1.000000(    39)     36  110.700(    80)     35  180.000(   120)      0
     41     41  H       39   1.000000(    40)     36  110.700(    81)     35  -60.000(   121)      0
     42     42  H       39   1.000000(    41)     36  110.700(    82)     35   60.000(   122)      0
     43     43  H       37   1.000000(    42)     36  113.467(    83)     35    0.000(   123)      0
 ---------------------------------------------------------------------------------------------------
                         Z-Matrix orientation:                         
 ---------------------------------------------------------------------
 Center     Atomic      Atomic             Coordinates (Angstroms)
 Number     Number       Type             X           Y           Z
 ---------------------------------------------------------------------
      1          6           0        0.000000    0.000000    0.000000
      2          6           0        0.000000    0.000000    1.300000
      3          6           0        1.125833    0.000000    1.950000
      4          6           0        2.251666    0.000000    1.300000
      5          6           0        2.251666    0.000000    0.000000
      6          6           0        1.125580   -0.033745   -0.649562
      7          9           0       -1.212436    0.000000   -0.700000
      8          1           0       -0.866025    0.000000    1.800000
      9          1           0        1.125833    0.000000    2.950000
     10          1           0        3.117691    0.000000    1.800000
     11          1           0        3.117691    0.000000   -0.500000
     12          1           0        1.125833   -0.000000   -1.650000
     13          8           0       -3.637307    0.000000   -2.100000
     14          6           0       -4.675488    0.000000   -2.701813
     15          1           0       -5.108404    0.866025   -2.951981
     16          1           0       -5.108404   -0.866025   -2.951981
     17          1           0       -1.531249    2.087792   -0.884067
     18          7           0       -1.680760    3.072599   -0.972403
     19          6           0       -1.199589    3.715582   -2.032566
     20          8           0       -1.343395    4.924232   -2.209721
     21          6           0       -2.411147    3.829308    0.025809
     22          1           0       -2.460643    4.795025   -0.229027
     23          1           0       -3.344400    3.482475    0.119330
     24          1           0       -1.962551    3.763826    0.917141
     25          1           0       -0.710188    3.121088   -2.670583
     26          1           0       -2.435290   -1.043896    0.681777
     27          7           0       -3.010713   -1.537186    1.334121
     28          6           0       -3.677547   -0.858264    2.263259
     29          8           0       -4.403726   -1.395039    3.098385
     30          6           0       -3.143252   -2.980718    1.300227
     31          1           0       -3.756373   -3.296485    2.024364
     32          1           0       -3.515872   -3.280948    0.422152
     33          1           0       -2.254441   -3.420416    1.429379
     34          1           0       -3.530959    0.129828    2.216495
     35          1           0       -0.627208   -1.043896   -2.449911
     36          7           0       -0.352343   -1.535412   -3.276265
     37          6           0        0.116788   -0.854333   -4.317873
     38          8           0        0.473992   -1.388863   -5.366483
     39          6           0       -0.449188   -2.978643   -3.377292
     40          1           0       -0.131045   -3.292503   -4.271874
     41          1           0        0.108505   -3.420390   -2.674555
     42          1           0       -1.395847   -3.278510   -3.259330
     43          1           0        0.150625    0.133376   -4.165278
 ---------------------------------------------------------------------
                    Distance matrix (angstroms):
                    1          2          3          4          5
     1  C    0.000000
     2  C    1.300000   0.000000
     3  C    2.251666   1.300000   0.000000
     4  C    2.600000   2.251666   1.300000   0.000000
     5  C    2.251666   2.600000   2.251666   1.300000   0.000000
     6  C    1.300000   2.251413   2.599781   2.251666   1.300438
     7  F    1.400000   2.338803   3.534119   4.000000   3.534119
     8  H    1.997498   1.000000   1.997498   3.157531   3.600000
     9  H    3.157531   1.997498   1.000000   1.997498   3.157531
    10  H    3.600000   3.157531   1.997498   1.000000   1.997498
    11  H    3.157531   3.600000   3.157531   1.997498   1.000000
    12  H    1.997498   3.157531   3.600000   3.157531   1.997498
    13  O    4.200000   4.978956   6.252200   6.800000   6.252200
    14  C    5.399999   6.154242   7.436040   7.999998   7.435406
    15  H    5.963219   6.702621   7.977790   8.544002   7.977144
    16  H    5.963219   6.702621   7.977790   8.544002   7.977144
    17  H    2.735905   3.387292   4.410317   4.841433   4.410317
    18  N    3.634747   4.174881   5.085102   5.483489   5.084329
    19  C    4.401805   5.133279   5.922328   6.068171   5.463335
    20  O    5.561982   6.194426   6.902784   7.034960   6.485013
    21  C    4.525251   4.701148   5.556648   6.166765   6.033746
    22  H    5.394393   5.602227   6.372066   6.894639   6.726854
    23  H    4.829791   4.970576   5.954995   6.696086   6.592255
    24  H    4.342712   4.261992   4.977078   5.663267   5.724261
    25  H    4.168641   5.100106   5.870430   5.854853   5.064167
    26  H    2.735905   2.720764   3.921697   4.841433   4.849958
    27  N    3.634173   3.380606   4.455700   5.482403   5.642292
    28  C    4.402648   3.897286   4.889499   6.067953   6.404258
    29  O    5.562277   4.957129   5.817297   7.033816   7.472641
    30  C    4.522754   4.331826   5.247092   6.163588   6.299239
    31  H    5.392143   5.049936   5.891373   6.891158   7.145726
    32  H    4.827441   4.888414   5.885946   6.693260   6.648859
    33  H    4.338764   4.098596   4.836997   5.658709   5.835012
    34  H    4.171017   3.650273   4.666218   5.856243   6.194228
    35  H    2.735905   3.942708   4.849958   4.841433   3.921697
    36  N    3.635320   4.839818   5.644143   5.484575   4.457832
    37  C    4.403130   5.683663   6.405802   6.070263   4.891996
    38  O    5.563520   6.826098   7.475611   7.037831   5.821358
    39  C    4.525504   5.563375   6.303415   6.167980   5.251002
    40  H    5.395058   6.473293   7.150667   6.896642   5.896337
    41  H    4.343281   5.244800   5.841279   5.664742   4.842051
    42  H    4.829104   5.786580   6.651663   6.696303   5.888651
    43  H    4.170134   5.468980   6.193985   5.856742   4.667088
                    6          7          8          9         10
     6  C    0.000000
     7  F    2.338803   0.000000
     8  H    3.157212   2.523886   0.000000
     9  H    3.599720   4.334743   2.300000   0.000000
    10  H    3.157531   5.000000   3.983717   2.300000   0.000000
    11  H    1.998003   4.334743   4.600000   3.983717   2.300000
    12  H    1.001007   2.523886   3.983717   4.600000   3.983717
    13  O    4.978956   2.800000   4.784349   6.941902   7.800000
    14  C    6.153476   3.999999   5.897315   8.099279   8.999998
    15  H    6.706212   4.582574   6.428771   8.628389   9.539390
    16  H    6.697491   4.582574   6.428771   8.628389   9.539390
    17  H    3.408028   2.120000   3.464912   5.110678   5.759839
    18  N    4.198707   3.119999   4.217923   5.718660   6.336577
    19  C    4.623479   3.947334   5.348399   6.636196   6.865349
    20  O    5.754257   5.152132   6.368187   7.547706   7.760620
    21  C    5.280885   4.077660   4.494303   5.977016   6.955531
    22  H    6.029500   4.977158   5.445367   6.779475   7.630663
    23  H    5.738965   4.164638   4.592888   6.334296   7.530665
    24  H    5.139325   4.164638   4.018482   5.276080   6.383940
    25  H    4.172235   3.725136   5.454502   6.686039   6.661829
    26  H    3.933531   2.120000   2.191514   4.349270   5.759839
    27  N    4.827448   3.119999   2.679491   4.699470   6.335403
    28  C    5.677533   3.948961   2.975883   4.927544   6.864873
    29  O    6.817144   5.153465   4.018366   5.704750   7.759102
    30  C    5.541593   4.075984   3.784206   5.461824   6.952256
    31  H    6.452040   4.976002   4.389905   5.963183   7.626921
    32  H    5.765065   4.162891   4.436752   6.220937   7.527765
    33  H    5.216903   4.161643   3.710028   5.043589   6.379374
    34  H    5.470320   3.728049   2.700407   4.715994   6.662948
    35  H    2.708123   2.120000   4.382750   5.772514   5.759839
    36  N    3.367318   3.119999   5.328211   6.580948   6.337752
    37  C    3.891983   3.947876   6.254933   7.387154   6.867582
    38  O    4.950784   5.152577   7.421797   8.456816   7.763798
    39  C    4.311940   4.077101   5.987522   7.168516   6.956960
    40  H    5.031874   4.976773   6.946109   8.035906   7.632989
    41  H    4.074850   4.164471   5.715804   6.661054   6.385602
    42  H    4.867955   4.163224   6.051955   7.460783   7.531101
    43  H    3.652223   3.726108   6.052761   7.183036   6.663769
                   11         12         13         14         15
    11  H    0.000000
    12  H    2.300000   0.000000
    13  O    6.941902   4.784349   0.000000
    14  C    8.098249   5.895900   1.200000   0.000000
    15  H    8.627332   6.427353   1.907878   1.000000   0.000000
    16  H    8.627332   6.427353   1.907878   1.000000   1.732051
    17  H    5.110678   3.464912   3.205129   4.189191   4.308714
    18  N    5.717444   4.216274   3.813189   4.626027   4.531715
    19  C    5.898577   4.399942   4.444386   5.131795   4.923833
    20  O    6.860940   5.537006   5.433427   5.965992   5.585274
    21  C    6.745971   5.475597   4.548201   5.218310   4.992341
    22  H    7.360944   6.154205   5.279900   5.832022   5.464628
    23  H    7.366806   5.936425   4.139910   4.675284   4.403461
    24  H    6.479471   5.504064   5.106304   5.884152   5.767473
    25  H    5.394931   3.762148   4.316802   5.046363   4.950636
    26  H    5.772514   4.382750   3.205129   4.190094   4.898728
    27  N    6.579079   5.327188   3.814282   4.628518   5.342884
    28  C    7.385627   6.254812   4.447051   5.136579   5.676201
    29  O    8.453770   7.420871   5.436611   5.971791   6.497377
    30  C    7.164141   5.984447   4.548661   5.220034   6.061397
    31  H    8.030691   6.942889   5.281228   5.835095   6.627103
    32  H    7.457824   6.050112   4.140122   4.676375   5.578379
    33  H    6.654439   5.710348   5.105691   5.884511   6.761287
    34  H    7.183367   6.054119   4.319756   5.051391   5.453757
    35  H    4.349270   2.191514   3.205129   4.188287   4.897039
    36  N    4.701731   2.680902   3.812096   4.623535   5.337807
    37  C    4.930666   2.977517   4.443205   5.129079   5.668150
    38  O    5.709706   4.020707   5.431541   5.962094   6.486717
    39  C    5.465688   3.786363   4.546195   5.214423   6.055631
    40  H    5.968408   4.392555   5.277451   5.827318   6.618881
    41  H    5.048065   3.712646   5.104928   5.881020   6.757696
    42  H    6.223710   4.438180   4.137247   4.670706   5.572676
    43  H    4.717578   2.701008   4.316433   5.044888   5.446674
                   16         17         18         19         20
    16  H    0.000000
    17  H    5.079109   0.000000
    18  N    5.583926   1.000000   0.000000
    19  C    6.092232   2.019591   1.330000   0.000000
    20  O    6.946461   3.136564   2.252403   1.230000   0.000000
    21  C    6.179691   2.152898   1.450000   2.391174   2.708605
    22  H    6.817082   2.936317   2.031644   2.451165   2.277737
    23  H    5.608397   2.497892   2.031644   3.047165   3.392221
    24  H    6.804559   2.497892   2.031644   3.047165   3.392221
    25  H    5.943111   2.221144   1.956573   1.000000   1.965877
    26  H    4.514574   3.616163   4.500128   5.616694   6.720978
    27  N    4.818862   4.499961   5.323434   6.496640   7.555706
    28  C    5.407970   4.815756   5.468852   6.746440   7.674182
    29  O    6.114193   6.020064   6.629151   7.919066   8.801977
    30  C    5.139555   5.749739   6.629206   7.728245   8.834447
    31  H    5.700801   6.511574   7.338529   8.494994   9.556680
    32  H    4.444410   5.870971   6.758696   7.768026   8.886584
    33  H    5.819479   6.017923   6.946719   8.001265   9.149110
    34  H    5.494834   4.176835   4.717224   6.028884   6.882088
    35  H    4.512740   3.616163   4.498726   4.811905   6.015744
    36  N    4.813871   4.498894   5.320361   5.462376   6.621685
    37  C    5.400781   4.812811   5.462980   5.276324   6.322045
    38  O    6.104616   6.016659   6.622352   6.322281   7.288568
    39  C    5.133453   5.749417   6.627050   6.869063   8.038549
    40  H    5.692453   6.510406   7.335029   7.434348   8.557862
    41  H    5.815314   6.019528   6.946776   7.283224   8.482736
    42  H    4.438200   5.870043   6.756315   7.103575   8.269789
    43  H    5.488924   4.173103   4.710356   4.382206   5.385963
                   21         22         23         24         25
    21  C    0.000000
    22  H    1.000000   0.000000
    23  H    1.000000   1.620237   0.000000
    24  H    1.000000   1.620237   1.620237   0.000000
    25  H    3.265787   3.439091   3.853996   3.853996   0.000000
    26  H    4.917215   5.909586   4.650900   4.836639   5.617952
    27  N    5.556116   6.545450   5.175332   5.419710   6.559695
    28  C    5.346334   6.296985   4.852776   5.110476   6.998804
    29  O    6.380040   7.291374   5.812666   6.109915   8.204793
    30  C    6.966820   7.954040   6.573268   6.857820   7.675883
    31  H    7.522020   8.498778   7.053594   7.368293   8.515105
    32  H    7.206472   8.170611   6.772370   7.230952   7.643490
    33  H    7.386005   8.383693   7.110144   7.208393   7.873099
    34  H    4.442886   5.374962   3.958933   4.165834   6.386542
    35  H    5.749761   6.510515   5.871301   6.019500   4.171652
    36  N    6.627412   7.335191   6.757342   6.946896   4.709342
    37  C    6.869827   7.434855   7.104682   7.283984   4.381944
    38  O    8.039288   8.558389   8.270684   8.483566   5.386077
    39  C    7.859935   8.624815   7.896497   8.135928   6.146079
    40  H    8.624914   9.337010   8.689572   8.948300   6.635789
    41  H    8.136260   8.948417   8.208404   8.294728   6.592512
    42  H    7.895824   8.688987   7.805326   8.207226   6.463096
    43  H    6.147178   6.636548   6.464483   6.593684   3.449861
                   26         27         28         29         30
    26  H    0.000000
    27  N    1.000000   0.000000
    28  C    2.019591   1.330000   0.000000
    29  O    3.136564   2.252403   1.230000   0.000000
    30  C    2.152898   1.450000   2.391174   2.708605   0.000000
    31  H    2.936317   2.031644   2.451165   2.277737   1.000000
    32  H    2.497892   2.031644   3.047165   3.392221   1.000000
    33  H    2.497892   2.031644   3.047165   3.392221   1.000000
    34  H    2.221144   1.956573   1.000000   1.965877   3.265787
    35  H    3.616163   4.499259   5.617206   6.720787   4.913786
    36  N    4.499595   5.321898   6.496294   7.554441   5.551790
    37  C    5.616542   6.495583   7.596598   8.702201   6.834649
    38  O    6.720445   7.554024   8.702286   9.769656   7.750064
    39  C    4.915678   5.553073   6.836236   7.751166   5.397886
    40  H    5.907998   6.542233   7.823756   8.727937   6.341838
    41  H    4.835657   5.417145   6.729092   7.601915   5.154234
    42  H    4.648254   5.171053   6.446917   7.281163   4.892000
    43  H    5.618441   6.559591   7.547473   8.708558   7.100631
                   31         32         33         34         35
    31  H    0.000000
    32  H    1.620237   0.000000
    33  H    1.620237   1.620237   0.000000
    34  H    3.439091   3.853996   3.853996   0.000000
    35  H    5.906350   4.647313   4.831628   5.620031   0.000000
    36  N    6.541060   5.170406   5.414269   6.561025   1.000000
    37  C    7.822369   6.446124   6.725951   7.548020   2.019591
    38  O    8.726949   7.280611   7.599691   8.709054   3.136564
    39  C    6.341639   4.892005   5.153464   7.102842   2.152898
    40  H    7.265372   5.787146   6.085183   8.085215   2.936317
    41  H    6.085431   4.769187   4.735587   7.054936   2.497892
    42  H    5.787039   4.248272   4.768785   6.794125   2.497892
    43  H    8.083332   6.793035   7.050814   7.367572   2.221144
                   36         37         38         39         40
    36  N    0.000000
    37  C    1.330000   0.000000
    38  O    2.252403   1.230000   0.000000
    39  C    1.450000   2.391174   2.708605   0.000000
    40  H    2.031644   2.451165   2.277737   1.000000   0.000000
    41  H    2.031644   3.047165   3.392221   1.000000   1.620237
    42  H    2.031644   3.047165   3.392221   1.000000   1.620237
    43  H    1.956573   1.000000   1.965877   3.265787   3.439091
                   41         42         43
    41  H    0.000000
    42  H    1.620237   0.000000
    43  H    3.853996   3.853996   0.000000
 Stoichiometry    C13H22FN3O4
 Framework group  C1[X(C13H22FN3O4)]
 Deg. of freedom   123
 Full point group                 C1      NOp   1
 Largest Abelian subgroup         C1      NOp   1
 Largest concise Abelian subgroup C1      NOp   1
                         Standard orientation:                         
 ---------------------------------------------------------------------
 Center     Atomic      Atomic             Coordinates (Angstroms)
 Number     Number       Type             X           Y           Z
 ---------------------------------------------------------------------
      1          6           0       -0.095176   -0.155971    1.438323
      2          6           0       -1.215814    0.026034    2.071604
      3          6           0       -1.250836   -0.058876    3.368355
      4          6           0       -0.165219   -0.325791    4.031826
      5          6           0        0.955419   -0.507796    3.398545
      6          6           0        0.983263   -0.455779    2.099446
      7          9           0       -0.057461   -0.064529    0.041822
      8          1           0       -2.050904    0.231354    1.561242
      9          1           0       -2.112865    0.081128    3.855494
     10          1           0       -0.192159   -0.391107    5.029327
     11          1           0        1.790509   -0.713116    3.908907
     12          1           0        1.852470   -0.562890    1.614655
     13          8           0        0.017970    0.118355   -2.751181
     14          6           0        0.052350    0.196316   -3.948152
     15          1           0        0.237482    1.075687   -4.386824
     16          1           0       -0.105462   -0.617817   -4.506975
     17          1           0        0.365836    2.000844   -0.180563
     18          7           0        0.567215    2.974727   -0.285439
     19          6           0        1.832924    3.379789   -0.338391
     20          8           0        2.157849    4.559209   -0.466040
     21          6           0       -0.484233    3.968473   -0.382528
     22          1           0       -0.096441    4.884753   -0.482766
     23          1           0       -1.068967    3.788274   -1.173487
     24          1           0       -1.056245    3.959144    0.437664
     25          1           0        2.493551    2.632733   -0.264379
     26          1           0       -2.025849   -0.700666   -0.422049
     27          7           0       -2.954344   -1.001737   -0.639429
     28          6           0       -3.931997   -0.103648   -0.720236
     29          8           0       -5.097006   -0.398090   -0.982835
     30          6           0       -3.272784   -2.397178   -0.871461
     31          1           0       -4.245606   -2.508735   -1.074372
     32          1           0       -2.749161   -2.755438   -1.644422
     33          1           0       -3.056469   -2.947887   -0.065280
     34          1           0       -3.627649    0.833002   -0.546859
     35          1           0        1.517383   -1.421629   -0.373564
     36          7           0        2.260653   -2.060847   -0.570922
     37          6           0        3.512292   -1.614057   -0.622675
     38          8           0        4.477055   -2.339314   -0.859604
     39          6           0        2.016797   -3.470970   -0.804561
     40          1           0        2.874250   -3.952800   -0.985155
     41          1           0        1.583763   -3.891640   -0.007367
     42          1           0        1.414040   -3.599732   -1.592028
     43          1           0        3.592104   -0.632253   -0.450365
 ---------------------------------------------------------------------
 Rotational constants (GHZ):           0.2081136           0.1792946           0.1648973
 Standard basis: 6-311++G(d,p) (5D, 7F)
 There are   637 symmetry adapted cartesian basis functions of A   symmetry.
 There are   616 symmetry adapted basis functions of A   symmetry.
   616 basis functions,   954 primitive gaussians,   637 cartesian basis functions
    81 alpha electrons       81 beta electrons
       nuclear repulsion energy      1700.9009915983 Hartrees.
 NAtoms=   43 NActive=   43 NUniq=   43 SFac= 1.00D+00 NAtFMM=   60 NAOKFM=F Big=F
 Integral buffers will be    131072 words long.
 Raffenetti 2 integral format.
 Two-electron integral symmetry is turned on.
 Force inversion solution in PCM.
 ------------------------------------------------------------------------------
 Polarizable Continuum Model (PCM)
 =================================
 Model                : PCM.
 Atomic radii         : UFF (Universal Force Field).
 Polarization charges : Total charges.
 Charge compensation  : None.
 Solution method      : Matrix inversion.
 Cavity type          : Scaled VdW (van der Waals Surface) (Alpha=1.100).
 Cavity algorithm     : GePol (No added spheres)
                        Default sphere list used, NSphG=   43.
                        Lebedev-Laikov grids with approx.  5.0 points / Ang**2.
                        Smoothing algorithm: York/Karplus (Gamma=1.0000).
                        Polarization charges: spherical gaussians, with
                                              point-specific exponents (IZeta= 3).
                        Self-potential: point-specific (ISelfS= 7).
                        Self-field    : sphere-specific E.n sum rule (ISelfD= 2).
 1st derivatives      : Analytical E(r).r(x)/FMM algorithm (CHGder, D1EAlg=3).
                        Cavity 1st derivative terms included.
 2nd derivatives      : Analytical E(r).r(xy)/FMM algorithm (CHGder, D2EAlg=3).
                        Cavity 2nd derivative terms included.
 Solvent              : Water, Eps=  78.355300 Eps(inf)=   1.777849
 ------------------------------------------------------------------------------
 One-electron integrals computed using PRISM.
 NBasis=   616 RedAO= T EigKep=  3.11D-06  NBF=   616
 NBsUse=   614 1.00D-06 EigRej=  7.33D-07 NBFU=   614
 ExpMin= 3.60D-02 ExpMax= 1.14D+04 ExpMxC= 1.72D+03 IAcc=3 IRadAn=         5 AccDes= 0.00D+00
 Harris functional with IExCor= 1009 and IRadAn=       5 diagonalized for initial guess.
 HarFok:  IExCor= 1009 AccDes= 0.00D+00 IRadAn=         5 IDoV= 1 UseB2=F ITyADJ=14
 ICtDFT=  3500011 ScaDFX=  1.000000  1.000000  1.000000  1.000000
 FoFCou: FMM=F IPFlag=           0 FMFlag=      100000 FMFlg1=           0
         NFxFlg=           0 DoJE=T BraDBF=F KetDBF=T FulRan=T
         wScrn=  0.000000 ICntrl=       500 IOpCl=  0 I1Cent=   200000004 NGrid=           0
         NMat0=    1 NMatS0=      1 NMatT0=    0 NMatD0=    1 NMtDS0=    0 NMtDT0=    0
 Petite list used in FoFCou.
 Requested convergence on RMS density matrix=1.00D-08 within 128 cycles.
 Requested convergence on MAX density matrix=1.00D-06.
 Requested convergence on             energy=1.00D-06.
 No special actions if energy rises.
 Inv3:  Mode=1 IEnd=    42345147.
 Iteration    1 A*A^-1 deviation from unit magnitude is 7.22D-15 for   3749.
 Iteration    1 A*A^-1 deviation from orthogonality  is 5.16D-15 for   3734   2801.
 Iteration    1 A^-1*A deviation from unit magnitude is 7.44D-15 for   3749.
 Iteration    1 A^-1*A deviation from orthogonality  is 2.90D-15 for   3733   3678.
 Error on total polarization charges =  0.01665
 SCF Done:  E(RM062X) =  -1073.31636730     A.U. after   14 cycles
            NFock= 14  Conv=0.41D-08     -V/T= 1.9994
 DoSCS=F DFT=T ScalE2(SS,OS)=  1.000000  1.000000
 Range of M.O.s used for correlation:     1   614
 NBasis=   616 NAE=    81 NBE=    81 NFC=     0 NFV=     0
 NROrb=    614 NOA=    81 NOB=    81 NVA=   533 NVB=   533

 **** Warning!!: The largest alpha MO coefficient is  0.11666485D+03

 Symmetrizing basis deriv contribution to polar:
 IMax=3 JMax=2 DiffMx= 0.00D+00
 G2DrvN: will do    44 centers at a time, making    1 passes.
 Calling FoFCou, ICntrl=  3107 FMM=F I1Cent=   0 AccDes= 0.00D+00.
 NEqPCM:  Using equilibrium solvation (IEInf=0, Eps=  78.3553, EpsInf=   1.7778)
 G2PCM: DoFxE=T DoFxN=T DoGrad=T DoDP/DQ/DG/TGxP=FFFF NFrqRd=   0 IEInf=0 SqF1=F DoCFld=F IF1Alg=4.
 End of G2Drv F.D. properties file   721 does not exist.
 End of G2Drv F.D. properties file   722 does not exist.
 End of G2Drv F.D. properties file   788 does not exist.
          IDoAtm=1111111111111111111111111111111111111111111
 NEqPCM:  Using equilibrium solvation (IEInf=0, Eps=  78.3553, EpsInf=   1.7778)
          Differentiating once with respect to electric field.
                with respect to dipole field.
          Differentiating once with respect to nuclear coordinates.
 CalDSu exits because no D1Ps are significant.
          There are   132 degrees of freedom in the 1st order CPHF.  IDoFFX=6 NUNeed=     3.
    129 vectors produced by pass  0 Test12= 4.32D-14 1.00D-09 XBig12= 1.03D+02 2.61D+00.
 AX will form   129 AO Fock derivatives at one time.
    129 vectors produced by pass  1 Test12= 4.32D-14 1.00D-09 XBig12= 1.17D+01 3.34D-01.
    129 vectors produced by pass  2 Test12= 4.32D-14 1.00D-09 XBig12= 1.68D-01 5.88D-02.
    129 vectors produced by pass  3 Test12= 4.32D-14 1.00D-09 XBig12= 1.85D-03 5.18D-03.
    129 vectors produced by pass  4 Test12= 4.32D-14 1.00D-09 XBig12= 1.15D-05 2.66D-04.
    129 vectors produced by pass  5 Test12= 4.32D-14 1.00D-09 XBig12= 5.75D-08 1.85D-05.
     91 vectors produced by pass  6 Test12= 4.32D-14 1.00D-09 XBig12= 1.65D-10 8.77D-07.
     12 vectors produced by pass  7 Test12= 4.32D-14 1.00D-09 XBig12= 4.88D-13 6.31D-08.
      3 vectors produced by pass  8 Test12= 4.32D-14 1.00D-09 XBig12= 1.73D-15 6.50D-09.
 InvSVY:  IOpt=1 It=  1 EMax= 5.33D-15
 Solved reduced A of dimension   880 with   132 vectors.
 Isotropic polarizability for W=    0.000000      214.99 Bohr**3.
 End of Minotr F.D. properties file   721 does not exist.
 End of Minotr F.D. properties file   722 does not exist.
 End of Minotr F.D. properties file   788 does not exist.

 **********************************************************************

            Population analysis using the SCF Density.

 **********************************************************************

 Orbital symmetries:
       Occupied  (A) (A) (A) (A) (A) (A) (A) (A) (A) (A) (A) (A)
                 (A) (A) (A) (A) (A) (A) (A) (A) (A) (A) (A) (A)
                 (A) (A) (A) (A) (A) (A) (A) (A) (A) (A) (A) (A)
                 (A) (A) (A) (A) (A) (A) (A) (A) (A) (A) (A) (A)
                 (A) (A) (A) (A) (A) (A) (A) (A) (A) (A) (A) (A)
                 (A) (A) (A) (A) (A) (A) (A) (A) (A) (A) (A) (A)
                 (A) (A) (A) (A) (A) (A) (A) (A) (A)
       Virtual   (A) (A) (A) (A) (A) (A) (A) (A) (A) (A) (A) (A)
                 (A) (A) (A) (A) (A) (A) (A) (A) (A) (A) (A) (A)
                 (A) (A) (A) (A) (A) (A) (A) (A) (A) (A) (A) (A)
                 (A) (A) (A) (A) (A) (A) (A) (A) (A) (A) (A) (A)
                 (A) (A) (A) (A) (A) (A) (A) (A) (A) (A) (A) (A)
                 (A) (A) (A) (A) (A) (A) (A) (A) (A) (A) (A) (A)
                 (A) (A) (A) (A) (A) (A) (A) (A) (A) (A) (A) (A)
                 (A) (A) (A) (A) (A) (A) (A) (A) (A) (A) (A) (A)
                 (A) (A) (A) (A) (A) (A) (A) (A) (A) (A) (A) (A)
                 (A) (A) (A) (A) (A) (A) (A) (A) (A) (A) (A) (A)
                 (A) (A) (A) (A) (A) (A) (A) (A) (A) (A) (A) (A)
                 (A) (A) (A) (A) (A) (A) (A) (A) (A) (A) (A) (A)
                 (A) (A) (A) (A) (A) (A) (A) (A) (A) (A) (A) (A)
                 (A) (A) (A) (A) (A) (A) (A) (A) (A) (A) (A) (A)
                 (A) (A) (A) (A) (A) (A) (A) (A) (A) (A) (A) (A)
                 (A) (A) (A) (A) (A) (A) (A) (A) (A) (A) (A) (A)
                 (A) (A) (A) (A) (A) (A) (A) (A) (A) (A) (A) (A)
                 (A) (A) (A) (A) (A) (A) (A) (A) (A) (A) (A) (A)
                 (A) (A) (A) (A) (A) (A) (A) (A) (A) (A) (A) (A)
                 (A) (A) (A) (A) (A) (A) (A) (A) (A) (A) (A) (A)
                 (A) (A) (A) (A) (A) (A) (A) (A) (A) (A) (A) (A)
                 (A) (A) (A) (A) (A) (A) (A) (A) (A) (A) (A) (A)
                 (A) (A) (A) (A) (A) (A) (A) (A) (A) (A) (A) (A)
                 (A) (A) (A) (A) (A) (A) (A) (A) (A) (A) (A) (A)
                 (A) (A) (A) (A) (A) (A) (A) (A) (A) (A) (A) (A)
                 (A) (A) (A) (A) (A) (A) (A) (A) (A) (A) (A) (A)
                 (A) (A) (A) (A) (A) (A) (A) (A) (A) (A) (A) (A)
                 (A) (A) (A) (A) (A) (A) (A) (A) (A) (A) (A) (A)
                 (A) (A) (A) (A) (A) (A) (A) (A) (A) (A) (A) (A)
                 (A) (A) (A) (A) (A) (A) (A) (A) (A) (A) (A) (A)
                 (A) (A) (A) (A) (A) (A) (A) (A) (A) (A) (A) (A)
                 (A) (A) (A) (A) (A) (A) (A) (A) (A) (A) (A) (A)
                 (A) (A) (A) (A) (A) (A) (A) (A) (A) (A) (A) (A)
                 (A) (A) (A) (A) (A) (A) (A) (A) (A) (A) (A) (A)
                 (A) (A) (A) (A) (A) (A) (A) (A) (A) (A) (A) (A)
                 (A) (A) (A) (A) (A) (A) (A) (A) (A) (A) (A) (A)
                 (A) (A) (A) (A) (A) (A) (A) (A) (A) (A) (A) (A)
                 (A) (A) (A) (A) (A) (A) (A) (A) (A) (A) (A) (A)
                 (A) (A) (A) (A) (A) (A) (A) (A) (A) (A) (A) (A)
                 (A) (A) (A) (A) (A) (A) (A) (A) (A) (A) (A) (A)
                 (A) (A) (A) (A) (A) (A) (A) (A) (A) (A) (A) (A)
                 (A) (A) (A) (A) (A) (A) (A) (A) (A) (A) (A) (A)
                 (A) (A) (A) (A) (A) (A) (A) (A) (A) (A) (A) (A)
                 (A) (A) (A) (A) (A) (A) (A) (A) (A) (A) (A) (A)
                 (A) (A) (A) (A) (A)
 The electronic state is 1-A.
 Alpha  occ. eigenvalues --  -25.27714 -19.64051 -19.59597 -19.59585 -19.59446
 Alpha  occ. eigenvalues --  -14.77804 -14.77789 -14.77609 -10.63548 -10.63536
 Alpha  occ. eigenvalues --  -10.63357 -10.62391 -10.61691 -10.53753 -10.53747
 Alpha  occ. eigenvalues --  -10.53658 -10.53254 -10.53245 -10.52740 -10.52728
 Alpha  occ. eigenvalues --  -10.51949  -1.38337  -1.19245  -1.16622  -1.16610
 Alpha  occ. eigenvalues --   -1.16467  -1.04252  -1.04242  -1.04021  -1.03893
 Alpha  occ. eigenvalues --   -0.90061  -0.89277  -0.83589  -0.83582  -0.83428
 Alpha  occ. eigenvalues --   -0.75030  -0.74817  -0.73337  -0.69884  -0.69814
 Alpha  occ. eigenvalues --   -0.69649  -0.67543  -0.65261  -0.65185  -0.65015
 Alpha  occ. eigenvalues --   -0.60550  -0.60380  -0.59897  -0.58922  -0.55028
 Alpha  occ. eigenvalues --   -0.55000  -0.54727  -0.54670  -0.54411  -0.54201
 Alpha  occ. eigenvalues --   -0.54003  -0.53847  -0.53175  -0.51979  -0.49929
 Alpha  occ. eigenvalues --   -0.49817  -0.49754  -0.48740  -0.47677  -0.47655
 Alpha  occ. eigenvalues --   -0.47510  -0.47402  -0.46577  -0.46559  -0.46435
 Alpha  occ. eigenvalues --   -0.45043  -0.42756  -0.35221  -0.34803  -0.34782
 Alpha  occ. eigenvalues --   -0.34626  -0.34564  -0.33829  -0.32811  -0.32763
 Alpha  occ. eigenvalues --   -0.32603
 Alpha virt. eigenvalues --   -0.00825  -0.00719   0.00117   0.00318   0.00535
 Alpha virt. eigenvalues --    0.01632   0.01953   0.02027   0.02071   0.02246
 Alpha virt. eigenvalues --    0.02393   0.02889   0.03193   0.03584   0.04128
 Alpha virt. eigenvalues --    0.04348   0.04520   0.04811   0.05119   0.05283
 Alpha virt. eigenvalues --    0.05629   0.05886   0.05958   0.06462   0.06656
 Alpha virt. eigenvalues --    0.07263   0.07575   0.07731   0.07905   0.08393
 Alpha virt. eigenvalues --    0.08518   0.08893   0.09152   0.09358   0.10432
 Alpha virt. eigenvalues --    0.10876   0.11273   0.11745   0.12033   0.12157
 Alpha virt. eigenvalues --    0.12467   0.12680   0.12927   0.13262   0.13502
 Alpha virt. eigenvalues --    0.13820   0.13920   0.14259   0.14351   0.14827
 Alpha virt. eigenvalues --    0.14904   0.15049   0.15396   0.15594   0.15836
 Alpha virt. eigenvalues --    0.16190   0.16372   0.16525   0.17055   0.17242
 Alpha virt. eigenvalues --    0.17350   0.17607   0.17926   0.18065   0.18535
 Alpha virt. eigenvalues --    0.18653   0.18963   0.19256   0.19714   0.20014
 Alpha virt. eigenvalues --    0.20462   0.20816   0.21210   0.21646   0.21729
 Alpha virt. eigenvalues --    0.22066   0.22407   0.22951   0.23260   0.23580
 Alpha virt. eigenvalues --    0.24052   0.24649   0.24748   0.25314   0.25566
 Alpha virt. eigenvalues --    0.25984   0.26451   0.26491   0.26933   0.27258
 Alpha virt. eigenvalues --    0.27388   0.27701   0.28114   0.28362   0.28605
 Alpha virt. eigenvalues --    0.29195   0.29285   0.29889   0.30056   0.30429
 Alpha virt. eigenvalues --    0.30871   0.31032   0.31350   0.31903   0.32255
 Alpha virt. eigenvalues --    0.32405   0.33030   0.33704   0.33731   0.34184
 Alpha virt. eigenvalues --    0.34504   0.34991   0.35242   0.35418   0.36189
 Alpha virt. eigenvalues --    0.36342   0.36540   0.36616   0.36913   0.37123
 Alpha virt. eigenvalues --    0.37577   0.38398   0.38409   0.39295   0.39457
 Alpha virt. eigenvalues --    0.39731   0.40402   0.40844   0.41496   0.41797
 Alpha virt. eigenvalues --    0.42247   0.43038   0.43555   0.44054   0.44559
 Alpha virt. eigenvalues --    0.45299   0.45638   0.46227   0.46670   0.46827
 Alpha virt. eigenvalues --    0.48711   0.49104   0.49633   0.49852   0.50629
 Alpha virt. eigenvalues --    0.50843   0.51790   0.52980   0.54451   0.56081
 Alpha virt. eigenvalues --    0.57111   0.57600   0.58826   0.59404   0.59692
 Alpha virt. eigenvalues --    0.59945   0.60452   0.60994   0.61615   0.61921
 Alpha virt. eigenvalues --    0.62633   0.63217   0.63446   0.63875   0.64345
 Alpha virt. eigenvalues --    0.64793   0.65189   0.65413   0.66234   0.66697
 Alpha virt. eigenvalues --    0.66909   0.67800   0.68345   0.69568   0.69959
 Alpha virt. eigenvalues --    0.70458   0.71887   0.72379   0.72498   0.73526
 Alpha virt. eigenvalues --    0.74151   0.74693   0.75042   0.75181   0.75531
 Alpha virt. eigenvalues --    0.75809   0.76437   0.77286   0.78280   0.78695
 Alpha virt. eigenvalues --    0.79608   0.79815   0.80488   0.81057   0.81304
 Alpha virt. eigenvalues --    0.81796   0.82425   0.82763   0.83570   0.84367
 Alpha virt. eigenvalues --    0.84982   0.85543   0.88272   0.88673   0.88807
 Alpha virt. eigenvalues --    0.88850   0.90323   0.90497   0.92504   0.93273
 Alpha virt. eigenvalues --    0.94147   0.95841   0.96335   0.96707   0.97950
 Alpha virt. eigenvalues --    0.99287   1.00293   1.00632   1.01400   1.01749
 Alpha virt. eigenvalues --    1.02268   1.02600   1.03168   1.04040   1.04466
 Alpha virt. eigenvalues --    1.06608   1.08210   1.09631   1.09847   1.10629
 Alpha virt. eigenvalues --    1.11192   1.11677   1.12442   1.13414   1.14395
 Alpha virt. eigenvalues --    1.15287   1.15881   1.16493   1.17534   1.17711
 Alpha virt. eigenvalues --    1.19209   1.19336   1.19991   1.20955   1.21359
 Alpha virt. eigenvalues --    1.21922   1.22420   1.23046   1.23621   1.23902
 Alpha virt. eigenvalues --    1.25288   1.26689   1.27234   1.28056   1.28864
 Alpha virt. eigenvalues --    1.28955   1.30224   1.31109   1.33103   1.35157
 Alpha virt. eigenvalues --    1.35873   1.36688   1.37442   1.38014   1.39319
 Alpha virt. eigenvalues --    1.40355   1.42396   1.47471   1.50617   1.53263
 Alpha virt. eigenvalues --    1.55309   1.56177   1.56427   1.57250   1.57738
 Alpha virt. eigenvalues --    1.58050   1.58296   1.58911   1.59113   1.59221
 Alpha virt. eigenvalues --    1.62242   1.62995   1.63244   1.63816   1.63982
 Alpha virt. eigenvalues --    1.64448   1.64704   1.65428   1.66218   1.67152
 Alpha virt. eigenvalues --    1.67535   1.68380   1.68639   1.69509   1.69851
 Alpha virt. eigenvalues --    1.71173   1.72264   1.72422   1.73088   1.73512
 Alpha virt. eigenvalues --    1.74376   1.75308   1.75471   1.76044   1.76841
 Alpha virt. eigenvalues --    1.77282   1.77791   1.78389   1.79383   1.82364
 Alpha virt. eigenvalues --    1.82600   1.82961   1.83536   1.83874   1.84619
 Alpha virt. eigenvalues --    1.85208   1.85816   1.85999   1.86421   1.86550
 Alpha virt. eigenvalues --    1.87584   1.88733   1.91376   1.92004   1.92515
 Alpha virt. eigenvalues --    1.92770   1.93354   1.95403   1.97744   1.98436
 Alpha virt. eigenvalues --    1.99922   2.00692   2.01956   2.04337   2.04940
 Alpha virt. eigenvalues --    2.05612   2.05773   2.05949   2.06945   2.08571
 Alpha virt. eigenvalues --    2.10295   2.13857   2.14275   2.14442   2.15096
 Alpha virt. eigenvalues --    2.16317   2.16614   2.17427   2.18576   2.19692
 Alpha virt. eigenvalues --    2.20856   2.22401   2.22622   2.26845   2.27222
 Alpha virt. eigenvalues --    2.27539   2.32912   2.39925   2.41242   2.41742
 Alpha virt. eigenvalues --    2.42020   2.42259   2.42386   2.42671   2.43369
 Alpha virt. eigenvalues --    2.46912   2.50095   2.51431   2.54465   2.55700
 Alpha virt. eigenvalues --    2.56555   2.56900   2.57120   2.57687   2.58212
 Alpha virt. eigenvalues --    2.59198   2.60890   2.61451   2.62248   2.63200
 Alpha virt. eigenvalues --    2.63300   2.64235   2.65764   2.66381   2.67636
 Alpha virt. eigenvalues --    2.68489   2.69294   2.69716   2.71074   2.71165
 Alpha virt. eigenvalues --    2.72158   2.72724   2.74488   2.74992   2.75575
 Alpha virt. eigenvalues --    2.76402   2.77636   2.77978   2.79173   2.80725
 Alpha virt. eigenvalues --    2.81071   2.81465   2.81963   2.82580   2.84561
 Alpha virt. eigenvalues --    2.84837   2.85155   2.86554   2.87001   2.88947
 Alpha virt. eigenvalues --    2.89933   2.90040   2.90461   2.91908   2.92120
 Alpha virt. eigenvalues --    2.94669   2.95053   2.95193   2.95577   2.95858
 Alpha virt. eigenvalues --    2.97456   2.98180   2.99791   3.00375   3.00632
 Alpha virt. eigenvalues --    3.00715   3.01751   3.03316   3.03927   3.05003
 Alpha virt. eigenvalues --    3.05549   3.07123   3.08057   3.08515   3.10279
 Alpha virt. eigenvalues --    3.12122   3.25443   3.27493   3.28101   3.28539
 Alpha virt. eigenvalues --    3.31208   3.37204   3.40609   3.41838   3.42015
 Alpha virt. eigenvalues --    3.42052   3.44194   3.44821   3.45517   3.46295
 Alpha virt. eigenvalues --    3.56513   3.60600   3.62479   3.63494   3.63840
 Alpha virt. eigenvalues --    3.64647   3.65764   3.71622   3.71852   3.72426
 Alpha virt. eigenvalues --    3.77296   3.77619   3.87257   3.87521   3.88425
 Alpha virt. eigenvalues --    3.88451   3.92676   3.96205   3.97674   3.97988
 Alpha virt. eigenvalues --    3.99912   4.01204   4.02835   4.05585   4.06124
 Alpha virt. eigenvalues --    4.06579   4.09737   4.10865   4.11141   4.11362
 Alpha virt. eigenvalues --    4.11637   4.11793   4.12014   4.14040   4.17023
 Alpha virt. eigenvalues --    4.20064   4.26521   4.27730   4.36565   4.92776
 Alpha virt. eigenvalues --    4.95391   4.98514   4.98760   5.03348   5.06675
 Alpha virt. eigenvalues --    5.06818   5.07301   5.16841   5.18155   5.19979
 Alpha virt. eigenvalues --    5.20107   5.26318   5.33772   5.34513   5.34877
 Alpha virt. eigenvalues --    5.87086   5.87598   5.88051   5.88615   6.64438
 Alpha virt. eigenvalues --    6.69330   6.94018  23.75769  24.09596  24.09785
 Alpha virt. eigenvalues --   24.10116  24.18908  24.27001  24.28274  24.28339
 Alpha virt. eigenvalues --   24.28375  24.31779  24.53679  24.56807  24.72801
 Alpha virt. eigenvalues --   35.71381  35.71450  35.73816  50.08299  50.12032
 Alpha virt. eigenvalues --   50.12621  50.12810  66.98638
          Condensed to atoms (all electrons):
               1          2          3          4          5          6
     1  C    8.339363  -0.166865  -1.313371   0.439610  -1.683207   0.292588
     2  C   -0.166865   9.198768  -2.357032  -0.989219   2.141769  -2.153732
     3  C   -1.313371  -2.357032   8.923010   0.554156  -1.651198   1.851002
     4  C    0.439610  -0.989219   0.554156   6.490394   0.545072  -0.987128
     5  C   -1.683207   2.141769  -1.651198   0.545072   9.690825  -2.890975
     6  C    0.292588  -2.153732   1.851002  -0.987128  -2.890975   9.460258
     7  F    0.285423  -0.163014   0.037818   0.017114   0.069677  -0.165640
     8  H   -0.140830   0.515724  -0.274264   0.017775   0.000389  -0.109803
     9  H    0.015634  -0.072239   0.466153  -0.082386  -0.019030   0.058469
    10  H   -0.003745  -0.023755  -0.043668   0.494406  -0.048540  -0.028041
    11  H    0.018665   0.054313  -0.021336  -0.089209   0.465408  -0.064005
    12  H   -0.110329  -0.116620   0.024243   0.038298  -0.300247   0.521862
    13  O   -0.020424  -0.006067  -0.001663   0.000274  -0.001180  -0.004734
    14  C    0.006179  -0.000183   0.000267   0.000131   0.000557   0.000682
    15  H    0.001065  -0.000522  -0.000213   0.000084  -0.000227  -0.000658
    16  H   -0.002336   0.000823   0.000211  -0.000063   0.000313   0.000823
    17  H    0.006850  -0.005451  -0.016275   0.020182   0.034010  -0.035340
    18  N   -0.083111   0.027516   0.019809  -0.002140   0.036259   0.019884
    19  C    0.049145  -0.014438   0.003004  -0.002002  -0.008150   0.002232
    20  O    0.004997  -0.001472  -0.000225   0.000170  -0.002035  -0.000923
    21  C    0.023362   0.006084  -0.030676  -0.002202   0.008679  -0.014199
    22  H    0.007428  -0.000463  -0.002549  -0.000286  -0.000518  -0.001816
    23  H    0.001149  -0.004006   0.000428   0.000244  -0.000610   0.000856
    24  H   -0.000109   0.001614   0.005272   0.001802  -0.000153   0.002764
    25  H    0.094048  -0.023884   0.000307   0.007112  -0.051279  -0.013335
    26  H   -0.059446   0.025569  -0.079637  -0.026514   0.060430   0.046025
    27  N   -0.042731  -0.048282   0.008588   0.011247  -0.003575  -0.007881
    28  C    0.034187   0.013146  -0.002136  -0.001969   0.007306  -0.015962
    29  O    0.004077   0.007557  -0.003655   0.000003   0.000137  -0.000393
    30  C    0.001210  -0.002279   0.025032   0.007354  -0.009095  -0.005382
    31  H    0.003634   0.001253  -0.003410  -0.000306   0.000269  -0.000938
    32  H   -0.009326  -0.006900   0.001575   0.000488   0.002306  -0.000104
    33  H    0.008921   0.018949   0.003340  -0.000503  -0.003208   0.002458
    34  H    0.049402   0.041894  -0.052886  -0.006501   0.004672  -0.009338
    35  H   -0.023803   0.009692   0.080387  -0.024497  -0.147302   0.013102
    36  N   -0.035088  -0.004555  -0.008088   0.015427   0.017001  -0.047294
    37  C    0.040900  -0.014818   0.004479  -0.002608  -0.006048   0.014622
    38  O    0.003996  -0.000399   0.000011  -0.000383  -0.004651   0.007583
    39  C   -0.007512   0.000618  -0.012263   0.007752   0.042823   0.002876
    40  H    0.003465  -0.000886   0.000408  -0.000657  -0.004215   0.002172
    41  H    0.007765   0.002070  -0.002825  -0.000846   0.003055   0.018801
    42  H   -0.009223   0.000118   0.002101   0.000923   0.002241  -0.006999
    43  H    0.019191  -0.000518  -0.001237  -0.015316  -0.031598   0.048638
               7          8          9         10         11         12
     1  C    0.285423  -0.140830   0.015634  -0.003745   0.018665  -0.110329
     2  C   -0.163014   0.515724  -0.072239  -0.023755   0.054313  -0.116620
     3  C    0.037818  -0.274264   0.466153  -0.043668  -0.021336   0.024243
     4  C    0.017114   0.017775  -0.082386   0.494406  -0.089209   0.038298
     5  C    0.069677   0.000389  -0.019030  -0.048540   0.465408  -0.300247
     6  C   -0.165640  -0.109803   0.058469  -0.028041  -0.064005   0.521862
     7  F    9.038244  -0.021391  -0.000704   0.000947   0.000233  -0.024046
     8  H   -0.021391   1.144878  -0.089310   0.015851  -0.008127   0.000034
     9  H   -0.000704  -0.089310   0.488010  -0.021398   0.005155  -0.005889
    10  H    0.000947   0.015851  -0.021398   0.481353  -0.021093   0.013350
    11  H    0.000233  -0.008127   0.005155  -0.021093   0.483558  -0.077067
    12  H   -0.024046   0.000034  -0.005889   0.013350  -0.077067   1.014872
    13  O    0.005158  -0.001314  -0.000029   0.000013  -0.000014  -0.000740
    14  C    0.001776   0.001268  -0.000001   0.000011   0.000023   0.000031
    15  H   -0.000255  -0.000271   0.000002   0.000000  -0.000001   0.000131
    16  H   -0.000535  -0.000276   0.000003  -0.000001   0.000007  -0.000518
    17  H    0.064707  -0.062054   0.001582  -0.002203   0.003611  -0.039312
    18  N   -0.037491   0.000249   0.000554   0.000086   0.000783   0.000911
    19  C   -0.006599   0.012470  -0.000144   0.000271  -0.000293  -0.000474
    20  O   -0.000106   0.000479  -0.000028  -0.000003  -0.000008  -0.000851
    21  C   -0.006168   0.025978  -0.001341   0.000376  -0.000383   0.004638
    22  H   -0.000570   0.003356  -0.000048   0.000012  -0.000020  -0.000373
    23  H    0.000211   0.007840  -0.000371   0.000066  -0.000075   0.000124
    24  H    0.000696  -0.020353   0.000869  -0.000165   0.000166   0.001088
    25  H   -0.005835   0.002644   0.000061  -0.000036  -0.001518   0.005933
    26  H    0.008913  -0.084125   0.009006  -0.000714  -0.002045   0.070995
    27  N   -0.011631   0.121308  -0.006690   0.000707  -0.000302  -0.007331
    28  C    0.001955  -0.041578   0.001723  -0.000540   0.000717  -0.007630
    29  O    0.000062  -0.017570   0.000716  -0.000017   0.000003   0.000036
    30  C    0.005818   0.022537  -0.001971   0.000109   0.000269  -0.007718
    31  H   -0.000473   0.000542  -0.000363   0.000030   0.000008  -0.000090
    32  H    0.000385   0.014113  -0.000491   0.000001   0.000039  -0.001587
    33  H    0.000216  -0.030431   0.001877  -0.000125   0.000018   0.000420
    34  H   -0.003019  -0.073634   0.002862  -0.000308   0.000311  -0.001374
    35  H    0.006725   0.059901  -0.001160  -0.001141   0.002357  -0.058085
    36  N   -0.014083  -0.004915  -0.000586   0.000690  -0.004547   0.092264
    37  C    0.002378  -0.006391   0.000594  -0.000411   0.001328  -0.024862
    38  O    0.000110   0.000022  -0.000000  -0.000021   0.000632  -0.016309
    39  C    0.006108  -0.005495   0.000150   0.000157  -0.000043   0.008813
    40  H   -0.000380  -0.000161   0.000020   0.000034  -0.000409   0.001921
    41  H   -0.000099   0.000566   0.000001  -0.000088   0.001633  -0.027240
    42  H    0.000500  -0.001468   0.000045  -0.000001  -0.000438   0.013406
    43  H   -0.000874  -0.001487   0.000105  -0.000210   0.003711  -0.066589
              13         14         15         16         17         18
     1  C   -0.020424   0.006179   0.001065  -0.002336   0.006850  -0.083111
     2  C   -0.006067  -0.000183  -0.000522   0.000823  -0.005451   0.027516
     3  C   -0.001663   0.000267  -0.000213   0.000211  -0.016275   0.019809
     4  C    0.000274   0.000131   0.000084  -0.000063   0.020182  -0.002140
     5  C   -0.001180   0.000557  -0.000227   0.000313   0.034010   0.036259
     6  C   -0.004734   0.000682  -0.000658   0.000823  -0.035340   0.019884
     7  F    0.005158   0.001776  -0.000255  -0.000535   0.064707  -0.037491
     8  H   -0.001314   0.001268  -0.000271  -0.000276  -0.062054   0.000249
     9  H   -0.000029  -0.000001   0.000002   0.000003   0.001582   0.000554
    10  H    0.000013   0.000011   0.000000  -0.000001  -0.002203   0.000086
    11  H   -0.000014   0.000023  -0.000001   0.000007   0.003611   0.000783
    12  H   -0.000740   0.000031   0.000131  -0.000518  -0.039312   0.000911
    13  O    8.177905   0.221759  -0.093018  -0.090640   0.031362  -0.001546
    14  C    0.221759   4.845471   0.423424   0.416363  -0.007739   0.001076
    15  H   -0.093018   0.423424   0.665529  -0.122482   0.008012   0.000397
    16  H   -0.090640   0.416363  -0.122482   0.668261  -0.002143   0.001188
    17  H    0.031362  -0.007739   0.008012  -0.002143   1.106057   0.355632
    18  N   -0.001546   0.001076   0.000397   0.001188   0.355632   7.152449
    19  C   -0.003457   0.001243  -0.001307  -0.000021  -0.278081   0.184051
    20  O    0.000180  -0.000097  -0.000037  -0.000045  -0.000450  -0.179817
    21  C   -0.001259   0.001090  -0.001368   0.000344  -0.113754   0.164244
    22  H    0.000016   0.000717  -0.000508   0.000015  -0.054319  -0.118598
    23  H   -0.000864   0.000820  -0.000833   0.000041  -0.008885  -0.042200
    24  H   -0.000025  -0.000863   0.000480  -0.000117   0.034088  -0.038441
    25  H   -0.001492   0.000297  -0.000384  -0.000924  -0.077822  -0.333967
    26  H    0.059456  -0.012918  -0.000328  -0.000778  -0.124970  -0.008952
    27  N   -0.008474   0.003610  -0.000308   0.000068   0.012666   0.002812
    28  C   -0.007480   0.000371   0.000317   0.000031   0.017404   0.003392
    29  O    0.000188  -0.000037   0.000058  -0.000059   0.000005  -0.000032
    30  C   -0.009469   0.001737  -0.000676   0.001301   0.013792   0.000669
    31  H   -0.000009   0.000357   0.000070  -0.000139   0.001228  -0.000032
    32  H   -0.000049  -0.000158   0.000036  -0.000834   0.000030   0.000172
    33  H   -0.000484  -0.000524  -0.000116   0.000412   0.000642  -0.000003
    34  H    0.000825  -0.003087   0.000475   0.000229   0.027811  -0.000542
    35  H    0.055335  -0.013642   0.000190   0.001491  -0.086787   0.001933
    36  N   -0.008161   0.004692  -0.000417  -0.000228   0.000703   0.002044
    37  C   -0.006497   0.001032   0.000213  -0.000481   0.003821  -0.001901
    38  O    0.000184  -0.000119   0.000067  -0.000050   0.000702  -0.000001
    39  C   -0.008565   0.001894  -0.000681   0.000735   0.008883  -0.000374
    40  H    0.000049   0.000301   0.000092  -0.000163   0.001303  -0.000109
    41  H   -0.000546  -0.000493  -0.000150   0.000421  -0.000051   0.000074
    42  H    0.000054   0.000200  -0.000019  -0.000949  -0.000918  -0.000072
    43  H    0.000509  -0.004247   0.000318   0.001191   0.043354   0.008553
              19         20         21         22         23         24
     1  C    0.049145   0.004997   0.023362   0.007428   0.001149  -0.000109
     2  C   -0.014438  -0.001472   0.006084  -0.000463  -0.004006   0.001614
     3  C    0.003004  -0.000225  -0.030676  -0.002549   0.000428   0.005272
     4  C   -0.002002   0.000170  -0.002202  -0.000286   0.000244   0.001802
     5  C   -0.008150  -0.002035   0.008679  -0.000518  -0.000610  -0.000153
     6  C    0.002232  -0.000923  -0.014199  -0.001816   0.000856   0.002764
     7  F   -0.006599  -0.000106  -0.006168  -0.000570   0.000211   0.000696
     8  H    0.012470   0.000479   0.025978   0.003356   0.007840  -0.020353
     9  H   -0.000144  -0.000028  -0.001341  -0.000048  -0.000371   0.000869
    10  H    0.000271  -0.000003   0.000376   0.000012   0.000066  -0.000165
    11  H   -0.000293  -0.000008  -0.000383  -0.000020  -0.000075   0.000166
    12  H   -0.000474  -0.000851   0.004638  -0.000373   0.000124   0.001088
    13  O   -0.003457   0.000180  -0.001259   0.000016  -0.000864  -0.000025
    14  C    0.001243  -0.000097   0.001090   0.000717   0.000820  -0.000863
    15  H   -0.001307  -0.000037  -0.001368  -0.000508  -0.000833   0.000480
    16  H   -0.000021  -0.000045   0.000344   0.000015   0.000041  -0.000117
    17  H   -0.278081  -0.000450  -0.113754  -0.054319  -0.008885   0.034088
    18  N    0.184051  -0.179817   0.164244  -0.118598  -0.042200  -0.038441
    19  C    5.078226   0.527276  -0.035570   0.041958  -0.002021  -0.020266
    20  O    0.527276   8.219238  -0.037132   0.040920  -0.002459  -0.005673
    21  C   -0.035570  -0.037132   5.095497   0.457086   0.414356   0.399209
    22  H    0.041958   0.040920   0.457086   0.496798  -0.028050  -0.035314
    23  H   -0.002021  -0.002459   0.414356  -0.028050   0.552464  -0.065928
    24  H   -0.020266  -0.005673   0.399209  -0.035314  -0.065928   0.565567
    25  H    0.344271  -0.062780  -0.013270   0.028289  -0.002454  -0.007839
    26  H    0.017967  -0.000159   0.008677  -0.000577   0.007890   0.001411
    27  N   -0.002319   0.000022   0.001971   0.000296  -0.000047  -0.000940
    28  C   -0.001844   0.000014  -0.000877   0.000785  -0.003025  -0.000450
    29  O   -0.000015   0.000000   0.000534   0.000056   0.000064  -0.000033
    30  C   -0.000970   0.000003  -0.001140   0.000010  -0.000167  -0.000461
    31  H   -0.000055   0.000000  -0.000329  -0.000028  -0.000019  -0.000006
    32  H   -0.000028  -0.000001   0.000087   0.000015  -0.000015  -0.000047
    33  H   -0.000066  -0.000000  -0.000073  -0.000007  -0.000028   0.000084
    34  H   -0.003815  -0.000091  -0.013679  -0.003048  -0.003910   0.006273
    35  H    0.007438   0.000107   0.008933   0.001392  -0.000933  -0.001563
    36  N   -0.002105   0.000058  -0.000684  -0.000062  -0.000125   0.000259
    37  C   -0.007001  -0.000108  -0.000155   0.000058   0.000049   0.000128
    38  O   -0.000290  -0.000001  -0.000042  -0.000004   0.000001   0.000003
    39  C   -0.000857  -0.000004  -0.000112  -0.000024  -0.000058   0.000102
    40  H   -0.000014  -0.000003  -0.000028  -0.000002   0.000001   0.000001
    41  H    0.000073   0.000001  -0.000032  -0.000002   0.000010  -0.000004
    42  H   -0.000018   0.000007   0.000020  -0.000003   0.000006   0.000012
    43  H    0.018184   0.001502  -0.003677  -0.000966   0.000019   0.000388
              25         26         27         28         29         30
     1  C    0.094048  -0.059446  -0.042731   0.034187   0.004077   0.001210
     2  C   -0.023884   0.025569  -0.048282   0.013146   0.007557  -0.002279
     3  C    0.000307  -0.079637   0.008588  -0.002136  -0.003655   0.025032
     4  C    0.007112  -0.026514   0.011247  -0.001969   0.000003   0.007354
     5  C   -0.051279   0.060430  -0.003575   0.007306   0.000137  -0.009095
     6  C   -0.013335   0.046025  -0.007881  -0.015962  -0.000393  -0.005382
     7  F   -0.005835   0.008913  -0.011631   0.001955   0.000062   0.005818
     8  H    0.002644  -0.084125   0.121308  -0.041578  -0.017570   0.022537
     9  H    0.000061   0.009006  -0.006690   0.001723   0.000716  -0.001971
    10  H   -0.000036  -0.000714   0.000707  -0.000540  -0.000017   0.000109
    11  H   -0.001518  -0.002045  -0.000302   0.000717   0.000003   0.000269
    12  H    0.005933   0.070995  -0.007331  -0.007630   0.000036  -0.007718
    13  O   -0.001492   0.059456  -0.008474  -0.007480   0.000188  -0.009469
    14  C    0.000297  -0.012918   0.003610   0.000371  -0.000037   0.001737
    15  H   -0.000384  -0.000328  -0.000308   0.000317   0.000058  -0.000676
    16  H   -0.000924  -0.000778   0.000068   0.000031  -0.000059   0.001301
    17  H   -0.077822  -0.124970   0.012666   0.017404   0.000005   0.013792
    18  N   -0.333967  -0.008952   0.002812   0.003392  -0.000032   0.000669
    19  C    0.344271   0.017967  -0.002319  -0.001844  -0.000015  -0.000970
    20  O   -0.062780  -0.000159   0.000022   0.000014   0.000000   0.000003
    21  C   -0.013270   0.008677   0.001971  -0.000877   0.000534  -0.001140
    22  H    0.028289  -0.000577   0.000296   0.000785   0.000056   0.000010
    23  H   -0.002454   0.007890  -0.000047  -0.003025   0.000064  -0.000167
    24  H   -0.007839   0.001411  -0.000940  -0.000450  -0.000033  -0.000461
    25  H    0.959600   0.002621  -0.000294  -0.000477   0.000011  -0.000315
    26  H    0.002621   1.651493   0.204288  -0.336541  -0.000772  -0.272115
    27  N   -0.000294   0.204288   7.224194   0.140745  -0.179319   0.202484
    28  C   -0.000477  -0.336541   0.140745   5.133372   0.520144  -0.021927
    29  O    0.000011  -0.000772  -0.179319   0.520144   8.220272  -0.038198
    30  C   -0.000315  -0.272115   0.202484  -0.021927  -0.038198   5.153306
    31  H   -0.000013  -0.034716  -0.113481   0.035755   0.039196   0.453711
    32  H   -0.000122   0.006389  -0.035444  -0.014528  -0.004533   0.411827
    33  H    0.000002   0.012085  -0.058601  -0.000067  -0.002498   0.404310
    34  H   -0.000115  -0.017597  -0.323675   0.397412  -0.042739  -0.025385
    35  H    0.020161  -0.180552   0.009946   0.019188  -0.000075   0.013072
    36  N    0.010199   0.004562   0.002181  -0.000043   0.000038   0.002299
    37  C    0.021264   0.017285  -0.000396  -0.001294  -0.000001  -0.001531
    38  O    0.001708   0.000031   0.000039   0.000001   0.000000  -0.000035
    39  C   -0.000704   0.014522   0.001475  -0.002031  -0.000023  -0.000721
    40  H   -0.000855  -0.000065   0.000136  -0.000188  -0.000004  -0.000412
    41  H    0.000065  -0.001452  -0.000409   0.000334   0.000015   0.001348
    42  H    0.000554   0.005869  -0.000597  -0.000056   0.000045  -0.000258
    43  H   -0.085801  -0.003117   0.000806   0.000027  -0.000009   0.000137
              31         32         33         34         35         36
     1  C    0.003634  -0.009326   0.008921   0.049402  -0.023803  -0.035088
     2  C    0.001253  -0.006900   0.018949   0.041894   0.009692  -0.004555
     3  C   -0.003410   0.001575   0.003340  -0.052886   0.080387  -0.008088
     4  C   -0.000306   0.000488  -0.000503  -0.006501  -0.024497   0.015427
     5  C    0.000269   0.002306  -0.003208   0.004672  -0.147302   0.017001
     6  C   -0.000938  -0.000104   0.002458  -0.009338   0.013102  -0.047294
     7  F   -0.000473   0.000385   0.000216  -0.003019   0.006725  -0.014083
     8  H    0.000542   0.014113  -0.030431  -0.073634   0.059901  -0.004915
     9  H   -0.000363  -0.000491   0.001877   0.002862  -0.001160  -0.000586
    10  H    0.000030   0.000001  -0.000125  -0.000308  -0.001141   0.000690
    11  H    0.000008   0.000039   0.000018   0.000311   0.002357  -0.004547
    12  H   -0.000090  -0.001587   0.000420  -0.001374  -0.058085   0.092264
    13  O   -0.000009  -0.000049  -0.000484   0.000825   0.055335  -0.008161
    14  C    0.000357  -0.000158  -0.000524  -0.003087  -0.013642   0.004692
    15  H    0.000070   0.000036  -0.000116   0.000475   0.000190  -0.000417
    16  H   -0.000139  -0.000834   0.000412   0.000229   0.001491  -0.000228
    17  H    0.001228   0.000030   0.000642   0.027811  -0.086787   0.000703
    18  N   -0.000032   0.000172  -0.000003  -0.000542   0.001933   0.002044
    19  C   -0.000055  -0.000028  -0.000066  -0.003815   0.007438  -0.002105
    20  O    0.000000  -0.000001  -0.000000  -0.000091   0.000107   0.000058
    21  C   -0.000329   0.000087  -0.000073  -0.013679   0.008933  -0.000684
    22  H   -0.000028   0.000015  -0.000007  -0.003048   0.001392  -0.000062
    23  H   -0.000019  -0.000015  -0.000028  -0.003910  -0.000933  -0.000125
    24  H   -0.000006  -0.000047   0.000084   0.006273  -0.001563   0.000259
    25  H   -0.000013  -0.000122   0.000002  -0.000115   0.020161   0.010199
    26  H   -0.034716   0.006389   0.012085  -0.017597  -0.180552   0.004562
    27  N   -0.113481  -0.035444  -0.058601  -0.323675   0.009946   0.002181
    28  C    0.035755  -0.014528  -0.000067   0.397412   0.019188  -0.000043
    29  O    0.039196  -0.004533  -0.002498  -0.042739  -0.000075   0.000038
    30  C    0.453711   0.411827   0.404310  -0.025385   0.013072   0.002299
    31  H    0.492110  -0.032918  -0.029840   0.021532  -0.000542   0.000180
    32  H   -0.032918   0.559529  -0.067072  -0.007103   0.005061  -0.000634
    33  H   -0.029840  -0.067072   0.565980  -0.000246  -0.000662  -0.000331
    34  H    0.021532  -0.007103  -0.000246   0.872405  -0.001079   0.000743
    35  H   -0.000542   0.005061  -0.000662  -0.001079   1.597977   0.245772
    36  N    0.000180  -0.000634  -0.000331   0.000743   0.245772   7.218516
    37  C   -0.000138   0.000113   0.000313  -0.000216  -0.314761   0.172740
    38  O   -0.000004   0.000038   0.000019  -0.000003  -0.003376  -0.187398
    39  C   -0.000346  -0.000328   0.001253  -0.000202  -0.267191   0.198732
    40  H   -0.000093   0.000269   0.000285  -0.000083  -0.038049  -0.115307
    41  H    0.000273   0.001694  -0.002468   0.000129   0.017967  -0.057191
    42  H    0.000268  -0.004389   0.001560   0.000286   0.002816  -0.035217
    43  H   -0.000072   0.000500   0.000153  -0.000235  -0.045661  -0.363141
              37         38         39         40         41         42
     1  C    0.040900   0.003996  -0.007512   0.003465   0.007765  -0.009223
     2  C   -0.014818  -0.000399   0.000618  -0.000886   0.002070   0.000118
     3  C    0.004479   0.000011  -0.012263   0.000408  -0.002825   0.002101
     4  C   -0.002608  -0.000383   0.007752  -0.000657  -0.000846   0.000923
     5  C   -0.006048  -0.004651   0.042823  -0.004215   0.003055   0.002241
     6  C    0.014622   0.007583   0.002876   0.002172   0.018801  -0.006999
     7  F    0.002378   0.000110   0.006108  -0.000380  -0.000099   0.000500
     8  H   -0.006391   0.000022  -0.005495  -0.000161   0.000566  -0.001468
     9  H    0.000594  -0.000000   0.000150   0.000020   0.000001   0.000045
    10  H   -0.000411  -0.000021   0.000157   0.000034  -0.000088  -0.000001
    11  H    0.001328   0.000632  -0.000043  -0.000409   0.001633  -0.000438
    12  H   -0.024862  -0.016309   0.008813   0.001921  -0.027240   0.013406
    13  O   -0.006497   0.000184  -0.008565   0.000049  -0.000546   0.000054
    14  C    0.001032  -0.000119   0.001894   0.000301  -0.000493   0.000200
    15  H    0.000213   0.000067  -0.000681   0.000092  -0.000150  -0.000019
    16  H   -0.000481  -0.000050   0.000735  -0.000163   0.000421  -0.000949
[...]
 Sum of Mulliken charges =  -0.00000
 Mulliken charges with hydrogens summed into heavy atoms:
               1
     1  C    0.374354
     2  C    0.105079
     3  C   -0.122317
     4  C   -0.333094
     5  C   -0.198729
     6  C    0.284889
     7  F   -0.049860
    13  O   -0.254469
    14  C    0.307552
    18  N    0.054604
    19  C    0.270218
    20  O   -0.475473
    21  C    0.117664
    27  N    0.026625
    28  C    0.281273
    29  O   -0.479917
    30  C    0.128419
    36  N    0.036603
    37  C    0.277425
    38  O   -0.474273
    39  C    0.123430
 APT charges:
               1
     1  C    0.751695
     2  C   -0.165956
     3  C    0.000201
     4  C   -0.097513
     5  C    0.000165
     6  C   -0.164449
     7  F   -0.809710
     8  H    0.095865
     9  H    0.078390
    10  H    0.069517
    11  H    0.078330
    12  H    0.094523
    13  O   -0.770629
    14  C    0.793147
    15  H   -0.014286
    16  H   -0.015025
    17  H    0.339102
    18  N   -0.951931
    19  C    1.384928
    20  O   -1.089564
    21  C    0.295028
    22  H    0.071144
    23  H   -0.006692
    24  H   -0.004785
    25  H   -0.004985
    26  H    0.319121
    27  N   -0.955548
    28  C    1.391304
    29  O   -1.088527
    30  C    0.293054
    31  H    0.070333
    32  H   -0.004094
    33  H   -0.003575
    34  H   -0.001511
    35  H    0.320320
    36  N   -0.954117
    37  C    1.391809
    38  O   -1.088802
    39  C    0.292169
    40  H    0.071257
    41  H   -0.003814
    42  H   -0.003577
    43  H   -0.002312
 Sum of APT charges =  -0.00000
 APT charges with hydrogens summed into heavy atoms:
               1
     1  C    0.751695
     2  C   -0.070091
     3  C    0.078591
     4  C   -0.027996
     5  C    0.078495
     6  C   -0.069926
     7  F   -0.809710
    13  O   -0.770629
    14  C    0.763836
    18  N   -0.612829
    19  C    1.379943
    20  O   -1.089564
    21  C    0.354694
    27  N   -0.636427
    28  C    1.389793
    29  O   -1.088527
    30  C    0.355719
    36  N   -0.633797
    37  C    1.389497
    38  O   -1.088802
    39  C    0.356036
 Electronic spatial extent (au):  <R**2>=           9131.0064
 Charge=             -0.0000 electrons
 Dipole moment (field-independent basis, Debye):
    X=             -2.7064    Y=             -3.5900    Z=              2.1118  Tot=              4.9671
 Quadrupole moment (field-independent basis, Debye-Ang):
   XX=           -200.0779   YY=           -155.6268   ZZ=            -93.9123
   XY=             -7.6947   XZ=              0.2211   YZ=              3.2273
 Traceless Quadrupole moment (field-independent basis, Debye-Ang):
   XX=            -50.2055   YY=             -5.7545   ZZ=             55.9600
   XY=             -7.6947   XZ=              0.2211   YZ=              3.2273
 Octapole moment (field-independent basis, Debye-Ang**2):
  XXX=             46.0551  YYY=           -209.0858  ZZZ=            -83.1296  XYY=           -134.1538
  XXY=            101.7742  XXZ=             92.3834  XZZ=              1.1787  YZZ=             -4.1887
  YYZ=              2.0531  XYZ=              3.0980
 Hexadecapole moment (field-independent basis, Debye-Ang**3):
 XXXX=          -7691.6040 YYYY=          -4581.3358 ZZZZ=          -2312.5448 XXXY=            249.0493
 XXXZ=           -104.7327 YYYX=           -416.2188 YYYZ=            166.8352 ZZZX=            -16.7091
 ZZZY=              4.9102 XXYY=          -1771.9501 XXZZ=          -1393.1141 YYZZ=          -1230.8440
 XXYZ=            -81.0157 YYXZ=            109.6214 ZZXY=            -20.0779
 N-N= 1.631898592754D+03 E-N=-5.773884687673D+03  KE= 1.069598294642D+03
  Exact polarizability: 275.838  -2.951 213.690  -0.254  -1.071 232.460
 Approx polarizability: 255.567  -3.038 194.377  -0.371  -1.048 222.398
 Rotating derivatives to standard orientation.
 ***** Axes restored to original set *****
 -------------------------------------------------------------------
 Center     Atomic                   Forces (Hartrees/Bohr)
 Number     Number              X              Y              Z
 -------------------------------------------------------------------
      1        6           0.017995735   -0.005040076    0.010618667
      2        6          -0.012277043    0.001100535   -0.000080347
      3        6           0.000301672   -0.000225272   -0.002243660
      4        6           0.004142427    0.000420294    0.002256238
      5        6          -0.002049081   -0.004175579    0.001384979
      6        6          -0.005807929    0.009161419   -0.010434173
      7        9           0.004709294   -0.000477847    0.002762308
      8        1           0.000043135    0.001133750    0.000077334
      9        1          -0.001601429   -0.000061415    0.000000032
     10        1           0.000004364    0.000505595   -0.000007468
     11        1          -0.000799752    0.000278480   -0.001385286
     12        1          -0.000024746   -0.001738968   -0.000057534
     13        8           0.000042321   -0.000113270   -0.000085139
     14        6           0.007285050    0.000013603    0.004407959
     15        1          -0.003657366   -0.002456270   -0.002174774
     16        1          -0.003653412    0.002458395   -0.002188463
     17        1          -0.001983978   -0.000236932    0.000699693
     18        7           0.001552471    0.016395250   -0.007348449
     19        6          -0.002863162   -0.004357593    0.006745682
     20        8           0.004453998   -0.000590316   -0.007639735
     21        6          -0.005068241   -0.009772397    0.012293473
     22        1           0.002513162   -0.000920262   -0.003975665
     23        1           0.000273215   -0.000802544   -0.000250016
     24        1           0.000298187   -0.000787262   -0.000207904
     25        1           0.000198423    0.000940725   -0.000724490
     26        1          -0.001190500   -0.002031446   -0.002592484
     27        7          -0.011272682   -0.001880949    0.014272796
     28        6           0.004262077   -0.003895629   -0.006361364
     29        8          -0.001868315    0.007816531    0.003398857
     30        6           0.009170027   -0.006813631   -0.012300669
     31        1          -0.000654501    0.004684207    0.001488550
     32        1           0.000327928    0.000792767   -0.000410026
     33        1           0.000423032    0.000756871   -0.000334915
     34        1          -0.000941289    0.000187226    0.001003378
     35        1          -0.002679307   -0.001962179    0.000270864
     36        7           0.006663317   -0.001753169   -0.016923912
     37        6          -0.003383965   -0.003933295    0.006874854
     38        8           0.002016951    0.007797270   -0.003288230
     39        6          -0.006023663   -0.006816001    0.014098334
     40        1           0.000948890    0.004685887   -0.001306817
     41        1          -0.000082481    0.000744623    0.000533969
     42        1          -0.000185847    0.000777444    0.000484387
     43        1           0.000443012    0.000191430   -0.001350836
 -------------------------------------------------------------------
 Cartesian Forces:  Max     0.017995735 RMS     0.005166120
 -----------------------------------------------------------------------------------------------
                       Internal Coordinate Forces (Hartree/Bohr or radian)
  Cent   Atom   N1       Length/X         N2         Alpha/Y        N3         Beta/Z          J
 -----------------------------------------------------------------------------------------------
      1  C 
      2  C        1   0.000002(     1)
      3  C        2   0.000001(     2)      1  -0.000664(    43)
      4  C        3  -0.000000(     3)      2  -0.003953(    44)      1  -0.015107(    84)     0
      5  C        4   0.000000(     4)      3  -0.010744(    45)      2  -0.008852(    85)     0
      6  C        1  -0.000000(     5)      2   0.031713(    46)      3  -0.014450(    86)     0
      7  F        1  -0.000005(     6)      2   0.000916(    47)      3   0.002747(    87)     0
      8  H        2   0.000001(     7)      1   0.000181(    48)      6  -0.002010(    88)     0
      9  H        3   0.000000(     8)      2  -0.003276(    49)      1   0.000109(    89)     0
     10  H        4   0.000000(     9)      3   0.000018(    50)      2  -0.000896(    90)     0
     11  H        5   0.000000(    10)      4   0.003272(    51)      3  -0.000493(    91)     0
     12  H        6  -0.000001(    11)      1   0.000125(    52)      2  -0.003085(    92)     0
     13  O        1   0.000006(    12)      2   0.000380(    53)      3  -0.000702(    93)     0
     14  C       13  -0.000000(    13)      1  -0.000007(    54)      2  -0.000025(    94)     0
     15  H       14   0.000000(    14)     13   0.010219(    55)      1   0.000082(    95)     0
     16  H       14   0.000000(    15)     13   0.010227(    56)      1  -0.000107(    96)     0
     17  H        7   0.000000(    16)      1   0.001801(    57)      2   0.000469(    97)     0
     18  N       17  -0.000001(    17)      7  -0.000314(    58)      1   0.000015(    98)     0
     19  C       18   0.000000(    18)     17  -0.029910(    59)      7   0.000017(    99)     0
     20  O       19  -0.000000(    19)     18   0.020480(    60)     17  -0.000127(   100)     0
     21  C       18   0.000000(    20)     17  -0.032716(    61)     19   0.000040(   101)     0
     22  H       21   0.000000(    21)     18  -0.009823(    62)     17  -0.000050(   102)     0
     23  H       21  -0.000000(    22)     18  -0.001607(    63)     17   0.000807(   103)     0
     24  H       21   0.000000(    23)     18  -0.001553(    64)     17  -0.000831(   104)     0
     25  H       19   0.000000(    24)     18   0.002500(    65)     17   0.000046(   105)     0
     26  H        7  -0.000001(    25)      1   0.011398(    66)      2  -0.002582(   106)     0
     27  N       26  -0.000000(    26)      7   0.000534(    67)      1   0.001321(   107)     0
     28  C       27   0.000000(    27)     26  -0.029417(    68)      7   0.001321(   108)     0
     29  O       28  -0.000000(    28)     27   0.020146(    69)     26  -0.000028(   109)     0
     30  C       27   0.000000(    29)     26  -0.032820(    70)     28   0.000131(   110)     0
     31  H       30   0.000000(    30)     27  -0.010163(    71)     26  -0.000024(   111)     0
     32  H       30  -0.000000(    31)     27  -0.001785(    72)     26   0.000760(   112)     0
     33  H       30  -0.000000(    32)     27  -0.001730(    73)     26  -0.000774(   113)     0
     34  H       28   0.000000(    33)     27   0.002874(    74)     26   0.000239(   114)     0
     35  H        7   0.000003(    34)      1   0.010859(    75)      2   0.002132(   115)     0
     36  N       35   0.000002(    35)      7  -0.000426(    76)      1  -0.001180(   116)     0
     37  C       36  -0.000000(    36)     35  -0.029122(    77)      7  -0.001180(   117)     0
     38  O       37   0.000001(    37)     36   0.020085(    78)     35  -0.000006(   118)     0
     39  C       36  -0.000000(    38)     35  -0.032781(    79)     37  -0.000123(   119)     0
     40  H       39   0.000000(    39)     36  -0.010158(    80)     35  -0.000002(   120)     0
     41  H       39   0.000000(    40)     36  -0.001705(    81)     35   0.000781(   121)     0
     42  H       39  -0.000000(    41)     36  -0.001754(    82)     35  -0.000750(   122)     0
     43  H       37  -0.000002(    42)     36   0.002974(    83)     35  -0.000177(   123)     0
 -----------------------------------------------------------------------------------------------
 Internal  Forces:  Max     0.032820204 RMS     0.008826353

 ----------------------------------------------------------------------

 Electric dipole moment (input orientation):
 (Debye = 10**-18 statcoulomb cm , SI units = C m)
                  (au)            (Debye)         (10**-30 SI)
   Tot        0.195421D+01      0.496711D+01      0.165685D+02
   x          0.312282D+00      0.793741D+00      0.264764D+01
   y         -0.153626D+01     -0.390479D+01     -0.130250D+02
   z          0.116675D+01      0.296559D+01      0.989216D+01

 Dipole polarizability, Alpha (input orientation).
 (esu units = cm**3 , SI units = C**2 m**2 J**-1)
 Alpha(0;0):
               (au)            (10**-24 esu)      (10**-40 SI)
   iso        0.240663D+03      0.356626D+02      0.396800D+02
   aniso      0.554786D+02      0.822107D+01      0.914718D+01
   xx         0.245577D+03      0.363907D+02      0.404901D+02
   yx        -0.385360D+01     -0.571045D+00     -0.635374D+00
   yy         0.214798D+03      0.318297D+02      0.354153D+02
   zx         0.195679D+02      0.289966D+01      0.322630D+01
   zy        -0.788309D+01     -0.116815D+01     -0.129975D+01
   zz         0.261614D+03      0.387673D+02      0.431344D+02

 ----------------------------------------------------------------------

 Dipole orientation:
     6          0.00000000          0.00000000          0.00000000
     6         -0.41921847          2.06233715          1.56629404
     6          1.60985480          3.27405088          2.71423387
     6          4.05436116          2.42183999          2.29426296
     6          4.47349099          0.35993893          0.72830012
     6          2.43874397         -0.89337697         -0.36604201
     9         -1.98870474         -1.18760661         -1.12510149
     1         -2.32716261          2.72749017          1.89408252
     1          1.28296526          4.88217762          3.93556634
     1          5.63493190          3.36571880          3.18846433
     1          6.38016225         -0.30477034          0.40073032
     1          2.77157391         -2.45918268         -1.64155000
     8         -6.65524746         -3.97435361         -3.76517877
     6         -8.41124125         -5.02703628         -4.76177970
     1         -9.07244163         -4.40266900         -6.63236293
     1         -9.35582209         -6.61116503         -3.80029155
     1         -2.21581690          0.91204454         -4.53360280
     7         -2.32162168          1.90745404         -6.15443217
     6         -0.99173747          1.13766551         -8.19018649
     8         -1.02579107          2.24677787        -10.21710689
     6         -3.87249884          4.16389174         -6.37343268
     1         -3.73316604          4.95869906         -8.25747420
     1         -5.85454367          3.72539174         -6.00333681
     1         -3.26618264          5.59972697         -5.02120301
     1          0.12318397         -0.58116487         -7.84823388
     1         -5.12830010         -0.45780666          1.89774639
     7         -6.47956577         -0.14315149          3.20338031
     6         -7.92159361          1.95713950          3.03917915
     8         -9.59261468          2.46456672          4.54933425
     6         -6.93149998         -1.88989047          5.27479986
     1         -8.45611645         -1.21873674          6.46887943
     1         -7.44718538         -3.75415726          4.55731626
     1         -5.24097273         -2.09230395          6.44009132
     1         -7.44480071          3.16347147          1.41565027
     1         -0.35062306         -5.35925006         -1.40176311
     7          0.34260595         -7.12979852         -1.52189180
     6          1.65114281         -7.82934387         -3.59960928
     8          2.54653012         -9.93903829         -3.87887422
     6         -0.02240755         -8.97079629          0.48389213
     1          0.86158475        -10.75517179         -0.00088209
     1          0.80643693         -8.29922222          2.24988768
     1         -2.03176604         -9.31235864          0.80343684
     1          1.83109287         -6.31642200         -5.01244663

 Electric dipole moment (dipole orientation):
 (Debye = 10**-18 statcoulomb cm , SI units = C m)
                  (au)            (Debye)         (10**-30 SI)
   Tot        0.195421D+01      0.496711D+01      0.165685D+02
   x          0.000000D+00      0.000000D+00      0.000000D+00
   y          0.000000D+00      0.000000D+00      0.000000D+00
   z          0.195421D+01      0.496711D+01      0.165685D+02

 Dipole polarizability, Alpha (dipole orientation).
 (esu units = cm**3 , SI units = C**2 m**2 J**-1)
 Alpha(0;0):
               (au)            (10**-24 esu)      (10**-40 SI)
   iso        0.240663D+03      0.356626D+02      0.396800D+02
   aniso      0.554786D+02      0.822107D+01      0.914718D+01
   xx         0.239244D+03      0.354522D+02      0.394459D+02
   yx         0.932836D+01      0.138232D+01      0.153804D+01
   yy         0.238371D+03      0.353230D+02      0.393021D+02
   zx         0.129416D+02      0.191775D+01      0.213379D+01
   zy         0.275850D+02      0.408768D+01      0.454815D+01
   zz         0.244374D+03      0.362125D+02      0.402919D+02

 ----------------------------------------------------------------------
 1\1\GINC-R820\POpt\RM062X\6-311++G(d,p)\C13H22F1N3O4\ZJXU\30-Mar-2024\
 1\\# opt=(z-matrix,recalc=5) 6-311++g(d,p) m062x scrf=(solvent=water)\
 \test\\0,1\C\C,1,B1\C,2,B2,1,120.00000011\C,3,B3,2,120.,1,0.,0\C,4,B4,
 3,119.99999989,2,0.,0\C,1,B5,2,119.97770821,3,1.71722694,0\F,1,B6,2,11
 9.9999999,3,-180.,0\H,2,B7,1,120.00000011,6,-178.28277306,0\H,3,B8,2,1
 20.00000011,1,180.,0\H,4,B9,3,120.,2,180.,0\H,5,B10,4,120.00000011,3,1
 80.,0\H,6,B11,1,119.91553063,2,-177.77151684,0\O,1,B12,2,119.9999999,3
 ,-180.,0\C,13,B13,1,179.90000005,2,180.,0\H,14,B14,13,119.99996989,1,-
 90.04490481,0\H,14,B15,13,119.99996989,1,90.04490481,0\H,7,B16,1,100.0
 0000001,2,90.,0\N,17,B17,7,179.9,1,90.,0\C,18,B18,17,119.5,7,0.,0\O,19
 ,B19,18,123.2,17,-180.,0\C,18,B20,17,121.9,19,-180.,0\H,21,B21,18,110.
 7,17,-180.,0\H,21,B22,18,110.7,17,-60.,0\H,21,B23,18,110.7,17,60.,0\H,
 19,B24,18,113.46721803,17,0.,0\H,7,B25,1,100.00000001,2,-30.,0\N,26,B2
 6,7,179.9,1,-30.,0\C,27,B27,26,119.5,7,120.,0\O,28,B28,27,123.2,26,-18
 0.,0\C,27,B29,26,121.9,28,-180.,0\H,30,B30,27,110.7,26,180.,0\H,30,B31
 ,27,110.7,26,-60.,0\H,30,B32,27,110.7,26,60.,0\H,28,B33,27,113.4672180
 3,26,0.,0\H,7,B34,1,100.00000001,2,-150.,0\N,35,B35,7,179.9,1,-150.,0\
 C,36,B36,35,119.5,7,60.,0\O,37,B37,36,123.2,35,-180.,0\C,36,B38,35,121
 .9,37,-180.,0\H,39,B39,36,110.7,35,180.,0\H,39,B40,36,110.7,35,-60.,0\
 H,39,B41,36,110.7,35,60.,0\H,37,B42,36,113.46721803,35,0.,0\\B1=1.3882
 4633\B2=1.39035251\B3=1.3878423\B4=1.38795278\B5=1.38797657\B6=1.36269
 136\B7=1.08321485\B8=1.0824981\B9=1.08303161\B10=1.08249219\B11=1.0831
 2686\B12=4.56027888\B13=1.20495271\B14=1.1006507\B15=1.1006576\B16=2.1
 2186179\B17=1.00809614\B18=1.3497092\B19=1.22281119\B20=1.45352297\B21
 =1.08458671\B22=1.09192161\B23=1.09192319\B24=1.09915588\B25=2.3384170
 5\B26=1.00816338\B27=1.35097072\B28=1.22174197\B29=1.45366054\B30=1.08
 458464\B31=1.09172283\B32=1.09179375\B33=1.0996723\B34=2.37614488\B35=
 1.00819566\B36=1.35106542\B37=1.22175981\B38=1.4536178\B39=1.08454794\
 B40=1.09179085\B41=1.09173442\B42=1.0995462\\Version=ES64L-G16RevB.01\
 State=1-A\HF=-1073.4878398\RMSD=5.063e-09\RMSF=5.166e-03\Dipole=0.3122
 818,-1.5362641,1.1667546\Polar=245.576728,-3.8536046,214.7976513,19.56
 78595,-7.8830896,261.6144659\Quadrupole=23.7565829,-6.2834785,-17.4731
 043,-2.4902586,32.4598052,9.7653096\PG=C01 [X(C13H22F1N3O4)]\\@


 SOME PHYSICISTS WOULD PREFER TO COME BACK TO THE IDEA OF AN OBJECTIVE
 REAL WORLD WHOSE SMALLEST PARTS EXIST OBJECTIVELY IN THE SAME SENSE AS
 STONES OR TREES EXIST INDEPENDENTLY OF WHETHER WE OBSERVE THEM.
 THIS, HOWEVER, IS IMPOSSIBLE.  -- WERNER HEISENBERG
 Job cpu time:       2 days 14 hours 32 minutes  3.9 seconds.
 Elapsed time:       0 days 15 hours 37 minutes 56.0 seconds.
 File lengths (MBytes):  RWF=   1743 Int=      0 D2E=      0 Chk=     52 Scr=      1
 Normal termination of Gaussian 16 at Sat Mar 30 09:56:28 2024.
