 Entering Gaussian System, Link 0=g16
 Input=model_H3.gjf
 Output=model_H3.log
 Initial command:
 /home/zjxu/prog/g16/l1.exe "/home/zjxu/zjhan/5_model/HF/H3/vacuum/Gau-49316.inp" -scrdir="/home/zjxu/zjhan/5_model/HF/H3/vacuum/"
 Entering Link 1 = /home/zjxu/prog/g16/l1.exe PID=     49317.
  
 Copyright (c) 1988-2017, Gaussian, Inc.  All Rights Reserved.
  
 This is part of the Gaussian(R) 16 program.  It is based on
 the Gaussian(R) 09 system (copyright 2009, Gaussian, Inc.),
 the Gaussian(R) 03 system (copyright 2003, Gaussian, Inc.),
 the Gaussian(R) 98 system (copyright 1998, Gaussian, Inc.),
 the Gaussian(R) 94 system (copyright 1995, Gaussian, Inc.),
 the Gaussian 92(TM) system (copyright 1992, Gaussian, Inc.),
 the Gaussian 90(TM) system (copyright 1990, Gaussian, Inc.),
 the Gaussian 88(TM) system (copyright 1988, Gaussian, Inc.),
 the Gaussian 86(TM) system (copyright 1986, Carnegie Mellon
 University), and the Gaussian 82(TM) system (copyright 1983,
 Carnegie Mellon University). Gaussian is a federally registered
 trademark of Gaussian, Inc.
  
 This software contains proprietary and confidential information,
 including trade secrets, belonging to Gaussian, Inc.
  
 This software is provided under written license and may be
 used, copied, transmitted, or stored only in accord with that
 written license.
  
 The following legend is applicable only to US Government
 contracts under FAR:
  
                    RESTRICTED RIGHTS LEGEND
  
 Use, reproduction and disclosure by the US Government is
 subject to restrictions as set forth in subparagraphs (a)
 and (c) of the Commercial Computer Software - Restricted
 Rights clause in FAR 52.227-19.
  
 Gaussian, Inc.
 340 Quinnipiac St., Bldg. 40, Wallingford CT 06492
  
  
 ---------------------------------------------------------------
 Warning -- This program may not be used in any manner that
 competes with the business of Gaussian, Inc. or will provide
 assistance to any competitor of Gaussian, Inc.  The licensee
 of this program is prohibited from giving any competitor of
 Gaussian, Inc. access to this program.  By using this program,
 the user acknowledges that Gaussian, Inc. is engaged in the
 business of creating and licensing software in the field of
 computational chemistry and represents and warrants to the
 licensee that it is not a competitor of Gaussian, Inc. and that
 it will not use this program in any manner prohibited above.
 ---------------------------------------------------------------
  

 Cite this work as:
 Gaussian 16, Revision B.01,
 M. J. Frisch, G. W. Trucks, H. B. Schlegel, G. E. Scuseria, 
 M. A. Robb, J. R. Cheeseman, G. Scalmani, V. Barone, 
 G. A. Petersson, H. Nakatsuji, X. Li, M. Caricato, A. V. Marenich, 
 J. Bloino, B. G. Janesko, R. Gomperts, B. Mennucci, H. P. Hratchian, 
 J. V. Ortiz, A. F. Izmaylov, J. L. Sonnenberg, D. Williams-Young, 
 F. Ding, F. Lipparini, F. Egidi, J. Goings, B. Peng, A. Petrone, 
 T. Henderson, D. Ranasinghe, V. G. Zakrzewski, J. Gao, N. Rega, 
 G. Zheng, W. Liang, M. Hada, M. Ehara, K. Toyota, R. Fukuda, 
 J. Hasegawa, M. Ishida, T. Nakajima, Y. Honda, O. Kitao, H. Nakai, 
 T. Vreven, K. Throssell, J. A. Montgomery, Jr., J. E. Peralta, 
 F. Ogliaro, M. J. Bearpark, J. J. Heyd, E. N. Brothers, K. N. Kudin, 
 V. N. Staroverov, T. A. Keith, R. Kobayashi, J. Normand, 
 K. Raghavachari, A. P. Rendell, J. C. Burant, S. S. Iyengar, 
 J. Tomasi, M. Cossi, J. M. Millam, M. Klene, C. Adamo, R. Cammi, 
 J. W. Ochterski, R. L. Martin, K. Morokuma, O. Farkas, 
 J. B. Foresman, and D. J. Fox, Gaussian, Inc., Wallingford CT, 2016.
 
 ******************************************
 Gaussian 16:  ES64L-G16RevB.01 20-Dec-2017
                17-Jun-2024 
 ******************************************
 %mem=4GB
 %nproc=4
 Will use up to    4 processors via shared memory.
 %chk=model_H3
 ----------------------------------
 # m062x 6-311++G(d,p) opt=z-matrix
 ----------------------------------
 1/10=7,18=40,26=3,38=1/1,3;
 2/12=2,17=6,18=5,29=3,40=1/2;
 3/5=4,6=6,7=1111,11=2,25=1,30=1,71=1,74=-55/1,2,3;
 4//1;
 5/5=2,38=5/2;
 6/7=2,8=2,9=2,10=2,28=1/1;
 7/29=1/1,2,3,16;
 1/10=7,18=40,26=3/3(2);
 2/29=3/2;
 99//99;
 2/29=3/2;
 3/5=4,6=6,7=1111,11=2,25=1,30=1,71=1,74=-55/1,2,3;
 4/5=5,16=3,69=1/1;
 5/5=2,38=5/2;
 7//1,2,3,16;
 1/18=40,26=3/3(-5);
 2/29=3/2;
 6/7=2,8=2,9=2,10=2,19=2,28=1/1;
 99/9=1/99;
 ----
 test
 ----
 Symbolic Z-matrix:
 Charge =  0 Multiplicity = 1
 C1
 C2                   1    d1
 C3                   2    d2       1     120. 
 C4                   3    d3       2     120.     1     0.       0
 C5                   4    d4       3     120.     2     0.       0
 C6                   5    d5       4     120.     3     0.       0
 F7                   1    d6       2     120.     3     180.     0
 H8                   2    d7       3     120.     4     180.     0
 H9                   3    d8       4     120.     5     180.     0
 H10                  4    d9       5     120.     6     180.     0
 H11                  5    d10      6     120.     1     180.     0
 H12                  6    d11      1     120.     2     180.     0
 O13                  7    d12      1     179.9    3     180.     0
 C14                  13   d13      1     179.9    2     180.     0
 H15                  14   d14      1     120.     2     90.      0
 H16                  14   d15      1     120.     2    -90.      0
 H17                  7    d16      1     100.     2     90.      0
 F18                  17   d17      7     160.     1     0.       0
 H19                  7    d18      1     100.     2    -30.      0
 F20                  19   d19      7     160.     1     0.       0
 H21                  7    d20      1     100.     2    -150.     0
 F22                  21   d21      7     160.     1     0.       0
       Variables:
  d1                    1.3                      
  d2                    1.3                      
  d3                    1.3                      
  d4                    1.3                      
  d5                    1.3                      
  d6                    1.4                      
  d7                    1.                       
  d8                    1.                       
  d9                    1.                       
  d10                   1.                       
  d11                   1.                       
  d12                   2.8                      
  d13                   1.2                      
  d14                   1.                       
  d15                   1.                       
  d16                   2.3                      
  d17                   0.9                      
  d18                   2.3                      
  d19                   0.9                      
  d20                   2.3                      
  d21                   0.9                      
 

 GradGradGradGradGradGradGradGradGradGradGradGradGradGradGradGradGradGrad
 Berny optimization.
 Initialization pass.
                       ----------------------------
                       !    Initial Parameters    !
                       ! (Angstroms and Degrees)  !
 ----------------------                            ----------------------
 !      Name          Value   Derivative information (Atomic Units)     !
 ------------------------------------------------------------------------
 !       d1          1.3      estimate D2E/DX2                          !
 !       d2          1.3      estimate D2E/DX2                          !
 !       d3          1.3      estimate D2E/DX2                          !
 !       d4          1.3      estimate D2E/DX2                          !
 !       d5          1.3      estimate D2E/DX2                          !
 !       d6          1.4      estimate D2E/DX2                          !
 !       d7          1.0      estimate D2E/DX2                          !
 !       d8          1.0      estimate D2E/DX2                          !
 !       d9          1.0      estimate D2E/DX2                          !
 !       d10         1.0      estimate D2E/DX2                          !
 !       d11         1.0      estimate D2E/DX2                          !
 !       d12         2.8      estimate D2E/DX2                          !
 !       d13         1.2      estimate D2E/DX2                          !
 !       d14         1.0      estimate D2E/DX2                          !
 !       d15         1.0      estimate D2E/DX2                          !
 !       d16         2.3      estimate D2E/DX2                          !
 !       d17         0.9      estimate D2E/DX2                          !
 !       d18         2.3      estimate D2E/DX2                          !
 !       d19         0.9      estimate D2E/DX2                          !
 !       d20         2.3      estimate D2E/DX2                          !
 !       d21         0.9      estimate D2E/DX2                          !
 ------------------------------------------------------------------------
 Trust Radius=3.00D-01 FncErr=1.00D-07 GrdErr=1.00D-06 EigMax=2.50D+02 EigMin=1.00D-04
 Number of steps in this run=     31 maximum allowed number of steps=    100.
 GradGradGradGradGradGradGradGradGradGradGradGradGradGradGradGradGradGrad

 ---------------------------------------------------------------------------------------------------
                            Z-MATRIX (ANGSTROMS AND DEGREES)
   CD    Cent   Atom    N1       Length/X        N2       Alpha/Y        N3        Beta/Z          J
 ---------------------------------------------------------------------------------------------------
      1      1  C 
      2      2  C        1   1.300000(     1)
      3      3  C        2   1.300000(     2)      1  120.000(    22)
      4      4  C        3   1.300000(     3)      2  120.000(    23)      1    0.000(    42)      0
      5      5  C        4   1.300000(     4)      3  120.000(    24)      2    0.000(    43)      0
      6      6  C        5   1.300000(     5)      4  120.000(    25)      3    0.000(    44)      0
      7      7  F        1   1.400000(     6)      2  120.000(    26)      3  180.000(    45)      0
      8      8  H        2   1.000000(     7)      3  120.000(    27)      4  180.000(    46)      0
      9      9  H        3   1.000000(     8)      4  120.000(    28)      5  180.000(    47)      0
     10     10  H        4   1.000000(     9)      5  120.000(    29)      6  180.000(    48)      0
     11     11  H        5   1.000000(    10)      6  120.000(    30)      1  180.000(    49)      0
     12     12  H        6   1.000000(    11)      1  120.000(    31)      2  180.000(    50)      0
     13     13  O        7   2.800000(    12)      1  179.900(    32)      3  180.000(    51)      0
     14     14  C       13   1.200000(    13)      1  179.900(    33)      2  180.000(    52)      0
     15     15  H       14   1.000000(    14)      1  120.000(    34)      2   90.000(    53)      0
     16     16  H       14   1.000000(    15)      1  120.000(    35)      2  -90.000(    54)      0
     17     17  H        7   2.300000(    16)      1  100.000(    36)      2   90.000(    55)      0
     18     18  F       17   0.900000(    17)      7  160.000(    37)      1    0.000(    56)      0
     19     19  H        7   2.300000(    18)      1  100.000(    38)      2  -30.000(    57)      0
     20     20  F       19   0.900000(    19)      7  160.000(    39)      1    0.000(    58)      0
     21     21  H        7   2.300000(    20)      1  100.000(    40)      2 -150.000(    59)      0
     22     22  F       21   0.900000(    21)      7  160.000(    41)      1    0.000(    60)      0
 ---------------------------------------------------------------------------------------------------
                         Z-Matrix orientation:                         
 ---------------------------------------------------------------------
 Center     Atomic      Atomic             Coordinates (Angstroms)
 Number     Number       Type             X           Y           Z
 ---------------------------------------------------------------------
      1          6           0        0.000000    0.000000    0.000000
      2          6           0        0.000000    0.000000    1.300000
      3          6           0        1.125833    0.000000    1.950000
      4          6           0        2.251666    0.000000    1.300000
      5          6           0        2.251666    0.000000   -0.000000
      6          6           0        1.125833    0.000000   -0.650000
      7          9           0       -1.212436   -0.000000   -0.700000
      8          1           0       -0.866025   -0.000000    1.800000
      9          1           0        1.125833   -0.000000    2.950000
     10          1           0        3.117691   -0.000000    1.800000
     11          1           0        3.117691   -0.000000   -0.500000
     12          1           0        1.125833   -0.000000   -1.650000
     13          8           0       -3.634860   -0.000000   -2.104230
     14          6           0       -4.672340   -0.000000   -2.707251
     15          1           0       -5.104965    0.866025   -2.957922
     16          1           0       -5.104965   -0.866025   -2.957922
     17          1           0       -1.558318    2.265058   -0.899695
     18          9           0       -1.422973    3.151385   -0.821554
     19          1           0       -2.539117   -1.132529    0.799098
     20          9           0       -2.787562   -1.575692    1.541985
     21          1           0       -0.577519   -1.132529   -2.598489
     22          9           0       -0.058383   -1.575692   -3.185092
 ---------------------------------------------------------------------
                    Distance matrix (angstroms):
                    1          2          3          4          5
     1  C    0.000000
     2  C    1.300000   0.000000
     3  C    2.251666   1.300000   0.000000
     4  C    2.600000   2.251666   1.300000   0.000000
     5  C    2.251666   2.600000   2.251666   1.300000   0.000000
     6  C    1.300000   2.251666   2.600000   2.251666   1.300000
     7  F    1.400000   2.338803   3.534119   4.000000   3.534119
     8  H    1.997498   1.000000   1.997498   3.157531   3.600000
     9  H    3.157531   1.997498   1.000000   1.997498   3.157531
    10  H    3.600000   3.157531   1.997498   1.000000   1.997498
    11  H    3.157531   3.600000   3.157531   1.997498   1.000000
    12  H    1.997498   3.157531   3.600000   3.157531   1.997498
    13  O    4.199999   4.980059   6.253077   6.799997   6.251317
    14  C    5.399997   6.155390   7.436988   7.999995   7.434452
    15  H    5.963218   6.703772   7.978755   8.543999   7.976172
    16  H    5.963218   6.703772   7.978755   8.543999   7.976172
    17  H    2.892800   3.521009   4.522822   4.948245   4.522822
    18  F    3.554016   4.056731   4.910107   5.285375   4.910107
    19  H    2.892800   2.825003   4.004879   4.948245   4.987262
    20  F    3.554016   3.211210   4.238390   5.285375   5.500395
    21  H    2.892800   4.100532   4.987262   4.948245   4.004879
    22  F    3.554016   4.754184   5.500395   5.285375   4.238390
                    6          7          8          9         10
     6  C    0.000000
     7  F    2.338803   0.000000
     8  H    3.157531   2.523886   0.000000
     9  H    3.600000   4.334743   2.300000   0.000000
    10  H    3.157531   5.000000   3.983717   2.300000   0.000000
    11  H    1.997498   4.334743   4.600000   3.983717   2.300000
    12  H    1.000000   2.523886   3.983717   4.600000   3.983717
    13  O    4.977849   2.800000   4.786382   6.943301   7.799997
    14  C    6.152324   3.999999   5.899436   8.100821   8.999995
    15  H    6.700697   4.582575   6.430896   8.629970   9.539387
    16  H    6.700697   4.582575   6.430896   8.629970   9.539387
    17  H    3.521009   2.300000   3.591394   5.211076   5.855246
    18  F    4.056731   3.160748   4.136902   5.536448   6.117303
    19  H    4.100532   2.300000   2.254698   4.397824   5.855246
    20  F    4.754184   3.160748   2.498336   4.447469   6.117303
    21  H    2.825003   2.300000   4.551105   5.913523   5.855246
    22  F    3.211210   3.160748   5.290202   6.443953   6.117303
                   11         12         13         14         15
    11  H    0.000000
    12  H    2.300000   0.000000
    13  O    6.940497   4.782313   0.000000
    14  C    8.096700   5.893776   1.200000   0.000000
    15  H    8.625744   6.425224   1.907878   1.000000   0.000000
    16  H    8.625744   6.425224   1.907878   1.000000   1.732051
    17  H    5.211076   3.591394   3.300517   4.253807   4.332700
    18  F    5.536448   4.136902   4.058193   4.903618   4.831563
    19  H    5.913523   4.551105   3.303421   4.257669   4.969204
    20  F    6.443953   5.290202   4.061478   4.908278   5.619742
    21  H    4.397824   2.254698   3.297612   4.249942   4.961973
    22  F    4.447469   2.498336   4.054905   4.898953   5.610845
                   16         17         18         19         20
    16  H    0.000000
    17  H    5.159329   0.000000
    18  F    5.853266   0.900000   0.000000
    19  H    4.557389   3.923195   4.714256   0.000000
    20  F    5.111080   4.714256   5.458359   0.900000   0.000000
    21  H    4.549503   3.923195   4.714256   3.923195   4.714256
    22  F    5.101296   4.714256   5.458359   4.714256   5.458359
                   21         22
    21  H    0.000000
    22  F    0.900000   0.000000
 Stoichiometry    C7H10F4O
 Framework group  C1[X(C7H10F4O)]
 Deg. of freedom    60
 Full point group                 C1      NOp   1
 Largest Abelian subgroup         C1      NOp   1
 Largest concise Abelian subgroup C1      NOp   1
                         Standard orientation:                         
 ---------------------------------------------------------------------
 Center     Atomic      Atomic             Coordinates (Angstroms)
 Number     Number       Type             X           Y           Z
 ---------------------------------------------------------------------
      1          6           0       -0.880854   -0.000042    0.000000
      2          6           0       -1.532341    1.124931    0.000000
      3          6           0       -2.832340    1.123213    0.000000
      4          6           0       -3.480852   -0.003478    0.000000
      5          6           0       -2.829365   -1.128451    0.000000
      6          6           0       -1.529366   -1.126733    0.000000
      7          9           0        0.519144    0.001807    0.000000
      8          1           0       -1.033486    1.991616    0.000000
      9          1           0       -3.333484    1.988577    0.000000
     10          1           0       -4.480851   -0.004799    0.000000
     11          1           0       -3.328221   -1.995136    0.000000
     12          1           0       -1.028223   -1.992097    0.000000
     13          8           0        3.319144    0.000620    0.000000
     14          6           0        4.519143   -0.001285    0.000000
     15          1           0        5.019143   -0.001400    0.866025
     16          1           0        5.019143   -0.001400   -0.866025
     17          1           0        0.918535    0.002335    2.265058
     18          9           0        0.762252    0.002129    3.151385
     19          1           0        0.915943    1.963931   -1.132529
     20          9           0        0.758646    2.731306   -1.575692
     21          1           0        0.921127   -1.959261   -1.132529
     22          9           0        0.765858   -2.727048   -1.575692
 ---------------------------------------------------------------------
 Rotational constants (GHZ):           0.7658531           0.4033036           0.3804359
 Standard basis: 6-311++G(d,p) (5D, 7F)
 There are   346 symmetry adapted cartesian basis functions of A   symmetry.
 There are   334 symmetry adapted basis functions of A   symmetry.
   334 basis functions,   522 primitive gaussians,   346 cartesian basis functions
    48 alpha electrons       48 beta electrons
       nuclear repulsion energy       698.7123834841 Hartrees.
 NAtoms=   22 NActive=   22 NUniq=   22 SFac= 1.00D+00 NAtFMM=   60 NAOKFM=F Big=F
 Integral buffers will be    131072 words long.
 Raffenetti 2 integral format.
 Two-electron integral symmetry is turned on.
 One-electron integrals computed using PRISM.
 NBasis=   334 RedAO= T EigKep=  2.92D-06  NBF=   334
 NBsUse=   333 1.00D-06 EigRej=  4.35D-07 NBFU=   333
 ExpMin= 3.60D-02 ExpMax= 1.14D+04 ExpMxC= 1.72D+03 IAcc=3 IRadAn=         5 AccDes= 0.00D+00
 Harris functional with IExCor= 1009 and IRadAn=       5 diagonalized for initial guess.
 HarFok:  IExCor= 1009 AccDes= 0.00D+00 IRadAn=         5 IDoV= 1 UseB2=F ITyADJ=14
 ICtDFT=  3500011 ScaDFX=  1.000000  1.000000  1.000000  1.000000
 FoFCou: FMM=F IPFlag=           0 FMFlag=      100000 FMFlg1=           0
         NFxFlg=           0 DoJE=T BraDBF=F KetDBF=T FulRan=T
         wScrn=  0.000000 ICntrl=       500 IOpCl=  0 I1Cent=   200000004 NGrid=           0
         NMat0=    1 NMatS0=      1 NMatT0=    0 NMatD0=    1 NMtDS0=    0 NMtDT0=    0
 Petite list used in FoFCou.
 Requested convergence on RMS density matrix=1.00D-08 within 128 cycles.
 Requested convergence on MAX density matrix=1.00D-06.
 Requested convergence on             energy=1.00D-06.
 No special actions if energy rises.
 SCF Done:  E(RM062X) =  -747.179555012     A.U. after   14 cycles
            NFock= 14  Conv=0.49D-08     -V/T= 1.9993

 **********************************************************************

            Population analysis using the SCF Density.

 **********************************************************************

 Orbital symmetries:
       Occupied  (A) (A) (A) (A) (A) (A) (A) (A) (A) (A) (A) (A)
                 (A) (A) (A) (A) (A) (A) (A) (A) (A) (A) (A) (A)
                 (A) (A) (A) (A) (A) (A) (A) (A) (A) (A) (A) (A)
                 (A) (A) (A) (A) (A) (A) (A) (A) (A) (A) (A) (A)
       Virtual   (A) (A) (A) (A) (A) (A) (A) (A) (A) (A) (A) (A)
                 (A) (A) (A) (A) (A) (A) (A) (A) (A) (A) (A) (A)
                 (A) (A) (A) (A) (A) (A) (A) (A) (A) (A) (A) (A)
                 (A) (A) (A) (A) (A) (A) (A) (A) (A) (A) (A) (A)
                 (A) (A) (A) (A) (A) (A) (A) (A) (A) (A) (A) (A)
                 (A) (A) (A) (A) (A) (A) (A) (A) (A) (A) (A) (A)
                 (A) (A) (A) (A) (A) (A) (A) (A) (A) (A) (A) (A)
                 (A) (A) (A) (A) (A) (A) (A) (A) (A) (A) (A) (A)
                 (A) (A) (A) (A) (A) (A) (A) (A) (A) (A) (A) (A)
                 (A) (A) (A) (A) (A) (A) (A) (A) (A) (A) (A) (A)
                 (A) (A) (A) (A) (A) (A) (A) (A) (A) (A) (A) (A)
                 (A) (A) (A) (A) (A) (A) (A) (A) (A) (A) (A) (A)
                 (A) (A) (A) (A) (A) (A) (A) (A) (A) (A) (A) (A)
                 (A) (A) (A) (A) (A) (A) (A) (A) (A) (A) (A) (A)
                 (A) (A) (A) (A) (A) (A) (A) (A) (A) (A) (A) (A)
                 (A) (A) (A) (A) (A) (A) (A) (A) (A) (A) (A) (A)
                 (A) (A) (A) (A) (A) (A) (A) (A) (A) (A) (A) (A)
                 (A) (A) (A) (A) (A) (A) (A) (A) (A) (A) (A) (A)
                 (A) (A) (A) (A) (A) (A) (A) (A) (A) (A) (A) (A)
                 (A) (A) (A) (A) (A) (A) (A) (A) (A) (A) (A) (A)
                 (A) (A) (A) (A) (A) (A) (A) (A) (A) (A) (A) (A)
                 (A) (A) (A) (A) (A) (A) (A) (A) (A) (A) (A) (A)
                 (A) (A) (A) (A) (A) (A) (A) (A) (A) (A) (A) (A)
                 (A) (A) (A) (A) (A) (A) (A) (A) (A)
 The electronic state is 1-A.
 Alpha  occ. eigenvalues --  -25.28480 -25.22910 -25.22909 -25.22201 -19.65606
 Alpha  occ. eigenvalues --  -10.63437 -10.62979 -10.53859 -10.53856 -10.53505
 Alpha  occ. eigenvalues --  -10.53493 -10.52793  -1.38998  -1.34776  -1.34765
 Alpha  occ. eigenvalues --   -1.34017  -1.20705  -1.04550  -0.90733  -0.89992
 Alpha  occ. eigenvalues --   -0.77028  -0.75471  -0.74075  -0.68283  -0.64600
 Alpha  occ. eigenvalues --   -0.64570  -0.63870  -0.62353  -0.60984  -0.60690
 Alpha  occ. eigenvalues --   -0.59389  -0.55603  -0.55150  -0.54243  -0.52664
 Alpha  occ. eigenvalues --   -0.51359  -0.51354  -0.51304  -0.51173  -0.50641
 Alpha  occ. eigenvalues --   -0.50640  -0.49279  -0.49083  -0.45928  -0.43495
 Alpha  occ. eigenvalues --   -0.36708  -0.35079  -0.34352
 Alpha virt. eigenvalues --   -0.02435  -0.00976  -0.00112   0.01046   0.01083
 Alpha virt. eigenvalues --    0.01397   0.01503   0.02240   0.02879   0.03191
 Alpha virt. eigenvalues --    0.04160   0.05468   0.05722   0.06664   0.07225
 Alpha virt. eigenvalues --    0.08041   0.09158   0.09675   0.10041   0.10860
 Alpha virt. eigenvalues --    0.11255   0.11736   0.12210   0.12658   0.12996
 Alpha virt. eigenvalues --    0.13193   0.13673   0.14035   0.14366   0.15162
 Alpha virt. eigenvalues --    0.15447   0.16178   0.17166   0.17259   0.17638
 Alpha virt. eigenvalues --    0.18126   0.18813   0.19709   0.20040   0.20556
 Alpha virt. eigenvalues --    0.21014   0.21501   0.22203   0.24216   0.24615
 Alpha virt. eigenvalues --    0.25436   0.27332   0.27731   0.28244   0.28982
 Alpha virt. eigenvalues --    0.30058   0.30248   0.30714   0.31174   0.32138
 Alpha virt. eigenvalues --    0.33425   0.34298   0.34395   0.34981   0.36213
 Alpha virt. eigenvalues --    0.36723   0.37044   0.37935   0.38266   0.39011
 Alpha virt. eigenvalues --    0.40022   0.40516   0.40919   0.42117   0.42261
 Alpha virt. eigenvalues --    0.44015   0.44353   0.45149   0.45337   0.47332
 Alpha virt. eigenvalues --    0.50565   0.53096   0.54532   0.55733   0.56404
 Alpha virt. eigenvalues --    0.56524   0.58710   0.58786   0.58903   0.60652
 Alpha virt. eigenvalues --    0.60729   0.61872   0.63153   0.64331   0.64910
 Alpha virt. eigenvalues --    0.65597   0.66698   0.66967   0.68782   0.69204
 Alpha virt. eigenvalues --    0.72838   0.74147   0.75838   0.76050   0.76263
 Alpha virt. eigenvalues --    0.80168   0.80350   0.81967   0.83871   0.84307
 Alpha virt. eigenvalues --    0.88477   0.88790   0.92401   0.95242   0.98878
 Alpha virt. eigenvalues --    0.99617   1.00176   1.01041   1.04738   1.05615
 Alpha virt. eigenvalues --    1.06252   1.07333   1.09400   1.10127   1.15315
 Alpha virt. eigenvalues --    1.15712   1.17517   1.20537   1.21198   1.22931
 Alpha virt. eigenvalues --    1.26698   1.31025   1.32534   1.33480   1.33488
 Alpha virt. eigenvalues --    1.34769   1.36000   1.36130   1.36825   1.40081
 Alpha virt. eigenvalues --    1.40507   1.43280   1.47781   1.47813   1.49355
 Alpha virt. eigenvalues --    1.50188   1.51333   1.52336   1.53314   1.54974
 Alpha virt. eigenvalues --    1.55559   1.56720   1.56733   1.60976   1.62926
 Alpha virt. eigenvalues --    1.64456   1.66112   1.66669   1.66809   1.67155
 Alpha virt. eigenvalues --    1.70479   1.70870   1.72463   1.75718   1.76157
 Alpha virt. eigenvalues --    1.79328   1.81025   1.83469   1.84325   1.84724
 Alpha virt. eigenvalues --    1.88964   1.92954   1.93181   1.94924   1.96612
 Alpha virt. eigenvalues --    1.96627   1.98072   2.03538   2.03583   2.04567
 Alpha virt. eigenvalues --    2.05892   2.06437   2.12407   2.14730   2.16481
 Alpha virt. eigenvalues --    2.16899   2.17737   2.18209   2.21078   2.26181
 Alpha virt. eigenvalues --    2.27227   2.34486   2.36396   2.39595   2.45445
 Alpha virt. eigenvalues --    2.47275   2.49525   2.50243   2.55271   2.55424
 Alpha virt. eigenvalues --    2.56366   2.62061   2.63554   2.65209   2.69846
 Alpha virt. eigenvalues --    2.70073   2.73334   2.75807   2.75966   2.76633
 Alpha virt. eigenvalues --    2.78085   2.80114   2.85109   2.85276   2.87288
 Alpha virt. eigenvalues --    2.87583   2.89457   2.95319   2.97141   2.98608
 Alpha virt. eigenvalues --    3.02137   3.07167   3.10857   3.23503   3.26148
 Alpha virt. eigenvalues --    3.33640   3.38320   3.41373   3.53528   3.58095
 Alpha virt. eigenvalues --    3.60629   3.63330   3.74274   3.74387   3.84641
 Alpha virt. eigenvalues --    3.86959   3.89348   3.89503   3.89671   3.89744
 Alpha virt. eigenvalues --    3.90018   3.90154   3.96440   3.98551   4.01820
 Alpha virt. eigenvalues --    4.07373   4.12467   4.14458   4.15284   4.15818
 Alpha virt. eigenvalues --    4.15893   4.16717   4.16876   4.18897   4.19125
 Alpha virt. eigenvalues --    4.25228   4.25234   4.35235   4.91786   4.91989
 Alpha virt. eigenvalues --    4.92668   4.93962   4.94993   5.10548   5.22193
 Alpha virt. eigenvalues --    5.82105   6.42214   6.43463   6.43590   6.45365
 Alpha virt. eigenvalues --    6.49444   6.50019   6.50182   6.60803   6.85987
 Alpha virt. eigenvalues --    6.86243   6.86259   6.91924  23.72535  24.15748
 Alpha virt. eigenvalues --   24.25633  24.30445  24.52890  24.56103  24.71647
 Alpha virt. eigenvalues --   50.05948  66.91578  66.92201  66.92509  66.94564
          Condensed to atoms (all electrons):
               1          2          3          4          5          6
     1  C   22.601440  -1.841057  -5.189965  -2.175364  -5.192691  -1.852939
     2  C   -1.841057  21.808877   3.036016  -1.311373  -2.589530 -13.363979
     3  C   -5.189965   3.036016  10.402217   1.435110  -1.311371  -2.593062
     4  C   -2.175364  -1.311373   1.435110   7.679854   1.438768  -1.305380
     5  C   -5.192691  -2.589530  -1.311371   1.438768  10.400293   3.033775
     6  C   -1.852939 -13.363979  -2.593062  -1.305380   3.033775  21.819452
     7  F    0.427428  -0.239616  -0.034960   0.034336  -0.035217  -0.241608
     8  H   -0.367108   0.581401   0.060820   0.010014   0.084589  -0.099953
     9  H    0.013705  -0.064034   0.457071  -0.096774  -0.029400   0.067410
    10  H    0.031222  -0.026631  -0.071965   0.512563  -0.071924  -0.026519
    11  H    0.014001   0.067567  -0.029354  -0.096795   0.456897  -0.064334
    12  H   -0.367102  -0.100295   0.084485   0.009846   0.060544   0.582272
    13  O    0.014188  -0.006944   0.000794   0.000044   0.000814  -0.006954
    14  C   -0.005384   0.000659   0.001194   0.000322   0.001180   0.000479
    15  H    0.001060  -0.000158  -0.000069  -0.000122  -0.000070  -0.000171
    16  H   -0.001670   0.000468   0.000163   0.000030   0.000166   0.000503
    17  H    0.008592  -0.000127  -0.001365  -0.004334  -0.001406  -0.000377
    18  F    0.228826  -0.066155  -0.035892   0.003181  -0.035856  -0.066316
    19  H   -0.033256   0.032323   0.021640   0.004362  -0.009114  -0.005136
    20  F   -0.087639   0.103754   0.020606   0.001331   0.003927  -0.041442
    21  H   -0.033629  -0.005276  -0.009084   0.004388   0.021678   0.032740
    22  F   -0.087121  -0.041179   0.003916   0.001257   0.020294   0.103364
               7          8          9         10         11         12
     1  C    0.427428  -0.367108   0.013705   0.031222   0.014001  -0.367102
     2  C   -0.239616   0.581401  -0.064034  -0.026631   0.067567  -0.100295
     3  C   -0.034960   0.060820   0.457071  -0.071965  -0.029354   0.084485
     4  C    0.034336   0.010014  -0.096774   0.512563  -0.096795   0.009846
     5  C   -0.035217   0.084589  -0.029400  -0.071924   0.456897   0.060544
     6  C   -0.241608  -0.099953   0.067410  -0.026519  -0.064334   0.582272
     7  F    9.306624  -0.011398  -0.002268   0.001544  -0.002252  -0.011483
     8  H   -0.011398   0.607925  -0.028082   0.001079   0.002612  -0.000017
     9  H   -0.002268  -0.028082   0.502095  -0.017435   0.000352   0.002620
    10  H    0.001544   0.001079  -0.017435   0.515668  -0.017427   0.001074
    11  H   -0.002252   0.002612   0.000352  -0.017427   0.502083  -0.028093
    12  H   -0.011483  -0.000017   0.002620   0.001074  -0.028093   0.608071
    13  O    0.008896  -0.000151   0.000024   0.000007   0.000025  -0.000172
    14  C    0.002595   0.000249  -0.000014   0.000011  -0.000014   0.000248
    15  H   -0.000495   0.000276  -0.000004  -0.000000  -0.000004   0.000281
    16  H   -0.000320  -0.000096   0.000003  -0.000002   0.000003  -0.000097
    17  H    0.012994  -0.002829   0.000571  -0.000252   0.000573  -0.002841
    18  F   -0.008888   0.001603  -0.000858   0.000264  -0.000858   0.001608
    19  H    0.012899  -0.016148   0.001708   0.000059  -0.000299   0.001864
    20  F   -0.004337   0.015812  -0.002590  -0.000096   0.000235  -0.001342
    21  H    0.012969   0.001857  -0.000299   0.000060   0.001704  -0.016132
    22  F   -0.004369  -0.001337   0.000235  -0.000097  -0.002583   0.015779
              13         14         15         16         17         18
     1  C    0.014188  -0.005384   0.001060  -0.001670   0.008592   0.228826
     2  C   -0.006944   0.000659  -0.000158   0.000468  -0.000127  -0.066155
     3  C    0.000794   0.001194  -0.000069   0.000163  -0.001365  -0.035892
     4  C    0.000044   0.000322  -0.000122   0.000030  -0.004334   0.003181
     5  C    0.000814   0.001180  -0.000070   0.000166  -0.001406  -0.035856
     6  C   -0.006954   0.000479  -0.000171   0.000503  -0.000377  -0.066316
     7  F    0.008896   0.002595  -0.000495  -0.000320   0.012994  -0.008888
     8  H   -0.000151   0.000249   0.000276  -0.000096  -0.002829   0.001603
     9  H    0.000024  -0.000014  -0.000004   0.000003   0.000571  -0.000858
    10  H    0.000007   0.000011  -0.000000  -0.000002  -0.000252   0.000264
    11  H    0.000025  -0.000014  -0.000004   0.000003   0.000573  -0.000858
    12  H   -0.000172   0.000248   0.000281  -0.000097  -0.002841   0.001608
    13  O    8.158101   0.296747  -0.090229  -0.088225   0.006022  -0.002125
    14  C    0.296747   4.806478   0.409022   0.404092   0.000070  -0.000091
    15  H   -0.090229   0.409022   0.714434  -0.146709  -0.000755   0.000245
    16  H   -0.088225   0.404092  -0.146709   0.716545   0.000170  -0.000132
    17  H    0.006022   0.000070  -0.000755   0.000170   0.393678   0.326914
    18  F   -0.002125  -0.000091   0.000245  -0.000132   0.326914   8.902222
    19  H    0.006159   0.000115  -0.000310  -0.000050   0.001484  -0.000777
    20  F   -0.001428   0.000239  -0.000111  -0.000031  -0.000740   0.000183
    21  H    0.006170   0.000110  -0.000314  -0.000050   0.001488  -0.000777
    22  F   -0.001421   0.000251  -0.000113  -0.000033  -0.000742   0.000183
              19         20         21         22
     1  C   -0.033256  -0.087639  -0.033629  -0.087121
     2  C    0.032323   0.103754  -0.005276  -0.041179
     3  C    0.021640   0.020606  -0.009084   0.003916
     4  C    0.004362   0.001331   0.004388   0.001257
     5  C   -0.009114   0.003927   0.021678   0.020294
     6  C   -0.005136  -0.041442   0.032740   0.103364
     7  F    0.012899  -0.004337   0.012969  -0.004369
     8  H   -0.016148   0.015812   0.001857  -0.001337
     9  H    0.001708  -0.002590  -0.000299   0.000235
    10  H    0.000059  -0.000096   0.000060  -0.000097
    11  H   -0.000299   0.000235   0.001704  -0.002583
    12  H    0.001864  -0.001342  -0.016132   0.015779
    13  O    0.006159  -0.001428   0.006170  -0.001421
    14  C    0.000115   0.000239   0.000110   0.000251
    15  H   -0.000310  -0.000111  -0.000314  -0.000113
    16  H   -0.000050  -0.000031  -0.000050  -0.000033
    17  H    0.001484  -0.000740   0.001488  -0.000742
    18  F   -0.000777   0.000183  -0.000777   0.000183
    19  H    0.427534   0.321614   0.000420  -0.000482
    20  F    0.321614   8.901711  -0.000477   0.000278
    21  H    0.000420  -0.000477   0.427416   0.321684
    22  F   -0.000482   0.000278   0.321684   8.901705
 Mulliken charges:
               1
     1  C   -0.105539
     2  C    0.025288
     3  C   -0.246944
     4  C   -0.145264
     5  C   -0.246346
     6  C    0.028175
     7  F   -0.223073
     8  H    0.158883
     9  H    0.195963
    10  H    0.168795
    11  H    0.195960
    12  H    0.158884
    13  O   -0.300342
    14  C    0.081444
    15  H    0.114318
    16  H    0.115271
    17  H    0.263213
    18  F   -0.246504
    19  H    0.233390
    20  F   -0.229456
    21  H    0.233353
    22  F   -0.229468
 Sum of Mulliken charges =  -0.00000
 Mulliken charges with hydrogens summed into heavy atoms:
               1
     1  C   -0.105539
     2  C    0.184171
     3  C   -0.050982
     4  C    0.023531
     5  C   -0.050385
     6  C    0.187058
     7  F   -0.223073
    13  O   -0.300342
    14  C    0.311032
    18  F    0.016710
    20  F    0.003934
    22  F    0.003884
 Electronic spatial extent (au):  <R**2>=           3215.7344
 Charge=             -0.0000 electrons
 Dipole moment (field-independent basis, Debye):
    X=              0.9137    Y=             -0.0063    Z=             -0.0571  Tot=              0.9155
 Quadrupole moment (field-independent basis, Debye-Ang):
   XX=            -36.2438   YY=            -77.3807   ZZ=            -85.4294
   XY=              0.0082   XZ=             -0.0054   YZ=             -0.0004
 Traceless Quadrupole moment (field-independent basis, Debye-Ang):
   XX=             30.1075   YY=            -11.0294   ZZ=            -19.0781
   XY=              0.0082   XZ=             -0.0054   YZ=             -0.0004
 Octapole moment (field-independent basis, Debye-Ang**2):
  XXX=            135.6129  YYY=             -0.0543  ZZZ=            -28.7787  XYY=             -7.7132
  XXY=             -0.0178  XXZ=             -0.0657  XZZ=             12.2129  YZZ=             -0.0038
  YYZ=             28.3306  XYZ=             -0.0380
 Hexadecapole moment (field-independent basis, Debye-Ang**3):
 XXXX=          -1621.7315 YYYY=           -893.0160 ZZZZ=           -716.3355 XXXY=             -0.2623
 XXXZ=              0.2501 YYYX=              0.1031 YYYZ=              0.1719 ZZZX=            -20.5048
 ZZZY=             -0.0614 XXYY=           -513.2225 XXZZ=           -520.9015 YYZZ=           -277.1445
 XXYZ=             -0.0546 YYXZ=             20.3989 ZZXY=              0.0004
 N-N= 6.987123834841D+02 E-N=-3.163650749309D+03  KE= 7.476666407027D+02
 Calling FoFJK, ICntrl=      2127 FMM=F ISym2X=0 I1Cent= 0 IOpClX= 0 NMat=1 NMatS=1 NMatT=0.
 ***** Axes restored to original set *****
 -------------------------------------------------------------------
 Center     Atomic                   Forces (Hartrees/Bohr)
 Number     Number              X              Y              Z
 -------------------------------------------------------------------
      1        6          -0.075908558    0.000436860   -0.043823361
      2        6          -0.054320377    0.000288180    0.013728915
      3        6           0.002739126    0.000267844    0.036650728
      4        6           0.038095315   -0.000335039    0.021994109
      5        6           0.033112727    0.000267704   -0.015947738
      6        6          -0.015264758    0.000288636   -0.053908914
      7        9           0.015816323   -0.000240152    0.009134111
      8        1          -0.064675701    0.000088567    0.037329375
      9        1          -0.001945881   -0.000016269    0.073603643
     10        1           0.064205728    0.000017009    0.037069374
     11        1           0.062769037   -0.000016346   -0.038487846
     12        1          -0.000010963    0.000088607   -0.074675244
     13        8           0.013525364    0.000154615    0.007783531
     14        6           0.065495976   -0.000015912    0.038158958
     15        1          -0.039170329    0.072206781   -0.022776944
     16        1          -0.039172218   -0.072202395   -0.022779711
     17        1          -0.005518432   -0.027764641   -0.003189598
     18        9           0.004423160    0.024754834    0.002554397
     19        1           0.006158733    0.013003596   -0.025530600
     20        9          -0.006818847   -0.012139719    0.021841526
     21        1          -0.019043197    0.013008292    0.018101258
     22        9           0.015507773   -0.012141051   -0.016829968
 -------------------------------------------------------------------
 Cartesian Forces:  Max     0.075908558 RMS     0.032904211
 -----------------------------------------------------------------------------------------------
                       Internal Coordinate Forces (Hartree/Bohr or radian)
  Cent   Atom   N1       Length/X         N2         Alpha/Y        N3         Beta/Z          J
 -----------------------------------------------------------------------------------------------
      1  C 
      2  C        1   0.037349(     1)
      3  C        2   0.152231(     2)      1   0.158963(    22)
      4  C        3   0.220380(     3)      2   0.413749(    23)      1   0.001826(    42)     0
      5  C        4   0.183027(     4)      3   0.449143(    24)      2   0.002085(    43)     0
      6  C        5   0.077529(     5)      4   0.251133(    25)      3   0.000748(    44)     0
      7  F        1  -0.012937(     6)      2  -0.000002(    26)      3   0.000946(    45)     0
      8  H        2   0.074675(     7)      3   0.000018(    27)      4   0.000145(    46)     0
      9  H        3   0.073604(     8)      4   0.003677(    28)      5  -0.000027(    47)     0
     10  H        4   0.074138(     9)      5   0.000000(    29)      6   0.000028(    48)     0
     11  H        5   0.073604(    10)      6  -0.003679(    30)      1  -0.000027(    49)     0
     12  H        6   0.074675(    11)      1  -0.000021(    31)      2   0.000145(    50)     0
     13  O        7  -0.000781(    12)      1  -0.000034(    32)      3  -0.000001(    51)     0
     14  C       13   0.014824(    13)      1   0.000106(    33)      2   0.000000(    52)     0
     15  H       14   0.085188(    14)      1   0.005928(    34)      2   0.000114(    53)     0
     16  H       14   0.085186(    15)      1   0.005938(    35)      2  -0.000117(    54)     0
     17  H        7  -0.002744(    16)      1   0.006447(    36)      2   0.000010(    55)     0
     18  F       17   0.025266(    17)      7  -0.001244(    37)      1  -0.000000(    56)     0
     19  H        7  -0.002449(    18)      1   0.011643(    38)      2  -0.001842(    57)     0
     20  F       19   0.025889(    19)      7  -0.000898(    39)      1   0.000378(    58)     0
     21  H        7  -0.002452(    20)      1   0.011691(    40)      2   0.001836(    59)     0
     22  F       21   0.025893(    21)      7  -0.000896(    41)      1  -0.000378(    60)     0
 -----------------------------------------------------------------------------------------------
 Internal  Forces:  Max     0.449142828 RMS     0.101547665

 GradGradGradGradGradGradGradGradGradGradGradGradGradGradGradGradGradGrad
 Berny optimization.
 Search for a local minimum.
 Step number   1 out of a maximum of   31
 All quantities printed in internal units (Hartrees-Bohrs-Radians)
 Second derivative matrix not updated -- first step.
 ITU=  0
     Eigenvalues ---    0.02330   0.02721   0.02721   0.02721   0.45621
     Eigenvalues ---    0.47688   0.47688   0.47688   0.47688   0.47688
     Eigenvalues ---    0.47688   0.47688   0.67193   0.67193   0.67193
     Eigenvalues ---    0.70673   0.70673   0.70673   1.04823   1.12429
     Eigenvalues ---    2.01579
 RFO step:  Lambda=-1.62575579D-01 EMin= 2.33007068D-02
 Linear search not attempted -- first point.
 Maximum step size (   0.300) exceeded in Quadratic search.
    -- Step size scaled by   0.670
 Variable       Old X    -DE/DX   Delta X   Delta X   Delta X     New X
                                 (Linear)    (Quad)   (Total)
    d1        2.45664   0.03735   0.00000   0.07598   0.07598   2.53262
    d2        2.45664   0.15223   0.00000   0.08635   0.08635   2.54299
    d3        2.45664   0.22038   0.00000   0.09513   0.09513   2.55177
    d4        2.45664   0.18303   0.00000   0.10107   0.10107   2.55771
    d5        2.45664   0.07753   0.00000   0.09823   0.09823   2.55488
    d6        2.64562  -0.01294   0.00000  -0.01402  -0.01402   2.63160
    d7        1.88973   0.07468   0.00000   0.07829   0.07829   1.96802
    d8        1.88973   0.07360   0.00000   0.07717   0.07717   1.96689
    d9        1.88973   0.07414   0.00000   0.07773   0.07773   1.96745
   d10        1.88973   0.07360   0.00000   0.07717   0.07717   1.96689
   d11        1.88973   0.07468   0.00000   0.07829   0.07829   1.96802
   d12        5.29123  -0.00078   0.00000  -0.00282  -0.00282   5.28842
   d13        2.26767   0.01482   0.00000   0.00821   0.00821   2.27588
   d14        1.88973   0.08519   0.00000   0.08931   0.08931   1.97904
   d15        1.88973   0.08519   0.00000   0.08931   0.08931   1.97904
   d16        4.34637  -0.00274   0.00000  -0.00969  -0.00969   4.33668
   d17        1.70075   0.02527   0.00000   0.01949   0.01949   1.72024
   d18        4.34637  -0.00245   0.00000  -0.00865  -0.00865   4.33772
   d19        1.70075   0.02589   0.00000   0.01997   0.01997   1.72072
   d20        4.34637  -0.00245   0.00000  -0.00866  -0.00866   4.33771
   d21        1.70075   0.02589   0.00000   0.01997   0.01997   1.72072
         Item               Value     Threshold  Converged?
 Maximum Force            0.220380     0.000450     NO 
 RMS     Force            0.086473     0.000300     NO 
 Maximum Displacement     0.101070     0.001800     NO 
 RMS     Displacement     0.065465     0.001200     NO 
 Predicted change in Energy=-7.977416D-02
 GradGradGradGradGradGradGradGradGradGradGradGradGradGradGradGradGradGrad

 ---------------------------------------------------------------------------------------------------
                            Z-MATRIX (ANGSTROMS AND DEGREES)
   CD    Cent   Atom    N1       Length/X        N2       Alpha/Y        N3        Beta/Z          J
 ---------------------------------------------------------------------------------------------------
      1      1  C 
      2      2  C        1   1.340204(     1)
      3      3  C        2   1.345695(     2)      1  120.000(    22)
      4      4  C        3   1.350341(     3)      2  120.000(    23)      1    0.000(    42)      0
      5      5  C        4   1.353484(     4)      3  120.000(    24)      2    0.000(    43)      0
      6      6  C        5   1.351982(     5)      4  120.000(    25)      3    0.000(    44)      0
      7      7  F        1   1.392583(     6)      2  120.000(    26)      3  180.000(    45)      0
      8      8  H        2   1.041430(     7)      3  120.000(    27)      4  180.000(    46)      0
      9      9  H        3   1.040835(     8)      4  120.000(    28)      5  180.000(    47)      0
     10     10  H        4   1.041132(     9)      5  120.000(    29)      6  180.000(    48)      0
     11     11  H        5   1.040835(    10)      6  120.000(    30)      1  180.000(    49)      0
     12     12  H        6   1.041430(    11)      1  120.000(    31)      2  180.000(    50)      0
     13     13  O        7   2.798510(    12)      1  179.900(    32)      3  180.000(    51)      0
     14     14  C       13   1.204344(    13)      1  179.900(    33)      2  180.000(    52)      0
     15     15  H       14   1.047263(    14)      1  120.000(    34)      2   90.000(    53)      0
     16     16  H       14   1.047261(    15)      1  120.000(    35)      2  -90.000(    54)      0
     17     17  H        7   2.294870(    16)      1  100.000(    36)      2   90.000(    55)      0
     18     18  F       17   0.910311(    17)      7  160.000(    37)      1    0.000(    56)      0
     19     19  H        7   2.295422(    18)      1  100.000(    38)      2  -30.000(    57)      0
     20     20  F       19   0.910565(    19)      7  160.000(    39)      1    0.000(    58)      0
     21     21  H        7   2.295416(    20)      1  100.000(    40)      2 -150.000(    59)      0
     22     22  F       21   0.910567(    21)      7  160.000(    41)      1    0.000(    60)      0
 ---------------------------------------------------------------------------------------------------
                         Z-Matrix orientation:                         
 ---------------------------------------------------------------------
 Center     Atomic      Atomic             Coordinates (Angstroms)
 Number     Number       Type             X           Y           Z
 ---------------------------------------------------------------------
      1          6           0        0.000000    0.000000    0.000000
      2          6           0        0.000000    0.000000    1.340204
      3          6           0        1.165406    0.000000    2.013052
      4          6           0        2.334836    0.000000    1.337881
      5          6           0        2.334836    0.000000   -0.015603
      6          6           0        1.163985    0.000000   -0.691594
      7          9           0       -1.206012   -0.000000   -0.696291
      8          1           0       -0.901905   -0.000000    1.860919
      9          1           0        1.165406   -0.000000    3.053887
     10          1           0        3.236483   -0.000000    1.858447
     11          1           0        3.236226   -0.000000   -0.536020
     12          1           0        1.150950   -0.000000   -1.732942
     13          8           0       -3.627147   -0.000000   -2.099774
     14          6           0       -4.668382   -0.000000   -2.704979
     15          1           0       -5.121452    0.906956   -2.967500
     16          1           0       -5.121452   -0.906955   -2.967499
     17          1           0       -1.551123    2.260006   -0.895541
     18          9           0       -1.414227    3.156487   -0.816504
     19          1           0       -2.530053   -1.130275    0.799823
     20          9           0       -2.781415   -1.578641    1.551431
     21          1           0       -0.572361   -1.130272   -2.590996
     22          9           0       -0.047130   -1.578638   -3.184487
 ---------------------------------------------------------------------
                    Distance matrix (angstroms):
                    1          2          3          4          5
     1  C    0.000000
     2  C    1.340204   0.000000
     3  C    2.326059   1.345695   0.000000
     4  C    2.690982   2.334837   1.350341   0.000000
     5  C    2.334888   2.699939   2.341582   1.353484   0.000000
     6  C    1.353943   2.341594   2.704646   2.343003   1.351982
     7  F    1.392583   2.366808   3.600578   4.083560   3.605682
     8  H    2.067959   1.041430   2.072901   3.278728   3.741367
     9  H    3.268700   2.072409   1.040835   2.076594   3.284712
    10  H    3.732110   3.277712   2.076839   1.041132   2.079671
    11  H    3.280316   3.740772   3.284214   2.079426   1.040835
    12  H    2.080331   3.281603   3.746022   3.291131   2.085867
    13  O    4.191091   4.998964   6.315370   6.882057   6.315774
    14  C    5.395433   6.177159   7.502859   8.086395   7.501853
    15  H    5.988146   6.753381   8.071744   8.657662   8.070471
    16  H    5.988146   6.753380   8.071743   8.657661   8.070470
    17  H    2.883679   3.537254   4.576797   5.019610   4.580676
    18  F    3.553890   4.076131   4.962289   5.353528   4.965917
    19  H    2.884164   2.823243   4.050415   5.023362   5.060591
    20  F    3.554618   3.205151   4.275815   5.358519   5.578864
    21  H    2.884159   4.130309   5.049218   5.016511   4.044992
    22  F    3.554614   4.792406   5.565676   5.349549   4.267047
                    6          7          8          9         10
     6  C    0.000000
     7  F    2.370001   0.000000
     8  H    3.283782   2.575230   0.000000
     9  H    3.745481   4.437056   2.386828   0.000000
    10  H    3.286025   5.124690   4.138388   2.391325   0.000000
    11  H    2.078073   4.445128   4.782201   4.144361   2.394468
    12  H    1.041430   2.574863   4.138847   4.786851   4.153014
    13  O    4.993787   2.798510   4.807706   7.037669   7.923189
    14  C    6.170107   4.002853   5.918934   8.197416   9.127527
    15  H    6.746038   4.616452   6.476170   8.752386   9.693679
    16  H    6.746038   4.616451   6.476169   8.752385   9.693678
    17  H    3.538507   2.294870   3.623146   5.299542   5.967684
    18  F    4.077523   3.165631   4.170670   5.621197   6.224780
    19  H    4.140985   2.295422   2.248180   4.473784   5.970857
    20  F    4.805147   3.166426   2.473954   4.508534   6.229081
    21  H    2.810719   2.295416   4.604961   6.013490   5.965095
    22  F    3.189579   3.166422   5.355265   6.548256   6.221366
                   11         12         13         14         15
    11  H    0.000000
    12  H    2.404370   0.000000
    13  O    7.039262   4.792158   0.000000
    14  C    8.196780   5.899956   1.204344   0.000000
    15  H    8.751311   6.456759   1.951529   1.047263   0.000000
    16  H    8.751310   6.456758   1.951528   1.047261   1.813911
    17  H    5.306184   3.620783   3.296616   4.254291   4.344077
    18  F    5.627504   4.169341   4.062906   4.911138   4.840526
    19  H    6.025941   4.608926   3.299818   4.258357   5.005834
    20  F    6.562130   5.361223   4.066776   4.916276   5.663453
    21  H    4.472781   2.232392   3.294014   4.250634   4.998628
    22  F    4.504098   2.456517   4.060200   4.906934   5.654557
                   16         17         18         19         20
    16  H    0.000000
    17  H    5.202874   0.000000
    18  F    5.906086   0.910311   0.000000
    19  H    4.577984   3.914916   4.715285   0.000000
    20  F    5.132997   4.715559   5.467884   0.910565   0.000000
    21  H    4.570104   3.914910   4.715280   3.915381   4.715999
    22  F    5.123181   4.715555   5.467880   4.716001   5.468568
                   21         22
    21  H    0.000000
    22  F    0.910567   0.000000
 Stoichiometry    C7H10F4O
 Framework group  C1[X(C7H10F4O)]
 Deg. of freedom    60
 Full point group                 C1      NOp   1
 Largest Abelian subgroup         C1      NOp   1
 Largest concise Abelian subgroup C1      NOp   1
                         Standard orientation:                         
 ---------------------------------------------------------------------
 Center     Atomic      Atomic             Coordinates (Angstroms)
 Number     Number       Type             X           Y           Z
 ---------------------------------------------------------------------
      1          6           0       -0.857658    0.005356    0.000063
      2          6           0       -1.526807    1.166556    0.000054
      3          6           0       -2.872502    1.167661    0.000027
      4          6           0       -3.548632   -0.001214    0.000011
      5          6           0       -2.872853   -1.173921    0.000020
      6          6           0       -1.520871   -1.175031    0.000047
      7          9           0        0.534924    0.004213    0.000090
      8          1           0       -1.005352    2.068033    0.000066
      9          1           0       -3.392180    2.069478    0.000020
     10          1           0       -4.589764   -0.000360   -0.000010
     11          1           0       -3.394010   -2.074883    0.000007
     12          1           0       -0.989643   -2.070784    0.000054
     13          8           0        3.333425   -0.002969    0.000145
     14          6           0        4.537760   -0.007463    0.000168
     15          1           0        5.061372   -0.008710    0.907135
     16          1           0        5.061407   -0.008704   -0.906777
     17          1           0        0.933380    0.003879    2.260104
     18          9           0        0.775289    0.004006    3.156582
     19          1           0        0.935149    1.961581   -1.130171
     20          9           0        0.777677    2.738305   -1.578537
     21          1           0        0.931934   -1.953798   -1.130180
     22          9           0        0.773187   -2.730261   -1.578552
 ---------------------------------------------------------------------
 Rotational constants (GHZ):           0.7562738           0.3972256           0.3733047
 Standard basis: 6-311++G(d,p) (5D, 7F)
 There are   346 symmetry adapted cartesian basis functions of A   symmetry.
 There are   334 symmetry adapted basis functions of A   symmetry.
   334 basis functions,   522 primitive gaussians,   346 cartesian basis functions
    48 alpha electrons       48 beta electrons
       nuclear repulsion energy       688.1027435690 Hartrees.
 NAtoms=   22 NActive=   22 NUniq=   22 SFac= 1.00D+00 NAtFMM=   60 NAOKFM=F Big=F
 Integral buffers will be    131072 words long.
 Raffenetti 2 integral format.
 Two-electron integral symmetry is turned on.
 One-electron integrals computed using PRISM.
 NBasis=   334 RedAO= T EigKep=  3.96D-06  NBF=   334
 NBsUse=   333 1.00D-06 EigRej=  6.08D-07 NBFU=   333
 Initial guess from the checkpoint file:  "model_H3.chk"
 B after Tr=    -0.000000    0.000000   -0.000000
         Rot=    1.000000   -0.000001    0.000007    0.000420 Ang=  -0.05 deg.
 ExpMin= 3.60D-02 ExpMax= 1.14D+04 ExpMxC= 1.72D+03 IAcc=3 IRadAn=         5 AccDes= 0.00D+00
 Harris functional with IExCor= 1009 and IRadAn=       5 diagonalized for initial guess.
 HarFok:  IExCor= 1009 AccDes= 0.00D+00 IRadAn=         5 IDoV= 1 UseB2=F ITyADJ=14
 ICtDFT=  3500011 ScaDFX=  1.000000  1.000000  1.000000  1.000000
 FoFCou: FMM=F IPFlag=           0 FMFlag=      100000 FMFlg1=           0
         NFxFlg=           0 DoJE=T BraDBF=F KetDBF=T FulRan=T
         wScrn=  0.000000 ICntrl=       500 IOpCl=  0 I1Cent=   200000004 NGrid=           0
         NMat0=    1 NMatS0=      1 NMatT0=    0 NMatD0=    1 NMtDS0=    0 NMtDT0=    0
 Petite list used in FoFCou.
 Requested convergence on RMS density matrix=1.00D-08 within 128 cycles.
 Requested convergence on MAX density matrix=1.00D-06.
 Requested convergence on             energy=1.00D-06.
 No special actions if energy rises.
 SCF Done:  E(RM062X) =  -747.255287000     A.U. after   12 cycles
            NFock= 12  Conv=0.81D-08     -V/T= 2.0015
 Calling FoFJK, ICntrl=      2127 FMM=F ISym2X=0 I1Cent= 0 IOpClX= 0 NMat=1 NMatS=1 NMatT=0.
 ***** Axes restored to original set *****
 -------------------------------------------------------------------
 Center     Atomic                   Forces (Hartrees/Bohr)
 Number     Number              X              Y              Z
 -------------------------------------------------------------------
      1        6          -0.018886661    0.000388018   -0.025609161
      2        6          -0.030057129    0.000390333    0.007876894
      3        6           0.008323929    0.000252828    0.009499184
      4        6           0.011324742   -0.000323583    0.004328432
      5        6           0.005559059    0.000248902   -0.000753419
      6        6          -0.012019504    0.000450577   -0.016816079
      7        9           0.014438408   -0.000230110    0.009191496
      8        1          -0.029154850    0.000049962    0.016727099
      9        1          -0.001580505   -0.000013729    0.033009859
     10        1           0.028817440    0.000011576    0.016465488
     11        1           0.027786479   -0.000011348   -0.017931721
     12        1           0.000256836    0.000084285   -0.033188738
     13        8           0.001931208    0.000146493    0.001043407
     14        6           0.038862248   -0.000012627    0.022737207
     15        1          -0.020018569    0.032403725   -0.011674806
     16        1          -0.020023696   -0.032400312   -0.011679482
     17        1          -0.003320199   -0.014137932   -0.001925593
     18        9           0.002237926    0.011295485    0.001296391
     19        1           0.002324226    0.005981090   -0.014012504
     20        9          -0.003127426   -0.005236153    0.010351936
     21        1          -0.011027227    0.005930095    0.009035089
     22        9           0.007353263   -0.005267574   -0.007970980
 -------------------------------------------------------------------
 Cartesian Forces:  Max     0.038862248 RMS     0.015013377
 -----------------------------------------------------------------------------------------------
                       Internal Coordinate Forces (Hartree/Bohr or radian)
  Cent   Atom   N1       Length/X         N2         Alpha/Y        N3         Beta/Z          J
 -----------------------------------------------------------------------------------------------
      1  C 
      2  C        1   0.019662(     1)
      3  C        2   0.057053(     2)      1   0.026573(    22)
      4  C        3   0.077410(     3)      2   0.124671(    23)      1   0.002624(    42)     0
      5  C        4   0.068245(     4)      3   0.147335(    24)      2   0.002856(    43)     0
      6  C        5   0.034738(     5)      4   0.091750(    25)      3   0.001143(    44)     0
      7  F        1  -0.011536(     6)      2  -0.002446(    26)      3   0.001326(    45)     0
      8  H        2   0.033612(     7)      3   0.000180(    27)      4   0.000085(    46)     0
      9  H        3   0.033010(     8)      4   0.003109(    28)      5  -0.000023(    47)     0
     10  H        4   0.033189(     9)      5  -0.000294(    29)      6   0.000020(    48)     0
     11  H        5   0.033030(    10)      6  -0.003218(    30)      1  -0.000019(    49)     0
     12  H        6   0.033183(    11)      1   0.001323(    31)      2   0.000144(    50)     0
     13  O        7  -0.000864(    12)      1  -0.000039(    32)      3  -0.000001(    51)     0
     14  C       13   0.001330(    13)      1   0.000106(    33)      2   0.000000(    52)     0
     15  H       14   0.039650(    14)      1   0.007654(    34)      2   0.000112(    53)     0
     16  H       14   0.039650(    15)      1   0.007669(    35)      2  -0.000115(    54)     0
     17  H        7  -0.002582(    16)      1   0.006480(    36)      2   0.000010(    55)     0
     18  F       17   0.011573(    17)      7  -0.001007(    37)      1  -0.000002(    56)     0
     19  H        7  -0.002289(    18)      1   0.012202(    38)      2  -0.001921(    57)     0
     20  F       19   0.011986(    19)      7  -0.000675(    39)      1   0.000429(    58)     0
     21  H        7  -0.002219(    20)      1   0.012855(    40)      2   0.002207(    59)     0
     22  F       21   0.012031(    21)      7  -0.000513(    41)      1  -0.000428(    60)     0
 -----------------------------------------------------------------------------------------------
 Internal  Forces:  Max     0.147334641 RMS     0.034553079

 GradGradGradGradGradGradGradGradGradGradGradGradGradGradGradGradGradGrad
 Berny optimization.
 Search for a local minimum.
 Step number   2 out of a maximum of   31
 All quantities printed in internal units (Hartrees-Bohrs-Radians)
 Update second derivatives using D2CorN and points    1    2
 DE= -7.57D-02 DEPred=-7.98D-02 R= 9.49D-01
 TightC=F SS=  1.41D+00  RLast= 3.00D-01 DXNew= 5.0454D-01 9.0000D-01
 Trust test= 9.49D-01 RLast= 3.00D-01 DXMaxT set to 5.05D-01
 ITU=  1  0
     Eigenvalues ---    0.02330   0.02718   0.02721   0.02721   0.45480
     Eigenvalues ---    0.47671   0.47688   0.47688   0.47688   0.47688
     Eigenvalues ---    0.47688   0.49619   0.67187   0.67193   0.70428
     Eigenvalues ---    0.70672   0.70673   0.70970   1.04885   1.12465
     Eigenvalues ---    2.02327
 RFO step:  Lambda=-3.96868124D-03 EMin= 2.32959604D-02
 Quartic linear search produced a step of  0.89632.
 Variable       Old X    -DE/DX   Delta X   Delta X   Delta X     New X
                                 (Linear)    (Quad)   (Total)
    d1        2.53262   0.01966   0.06810   0.00249   0.07059   2.60321
    d2        2.54299   0.05705   0.07740  -0.00909   0.06831   2.61131
    d3        2.55177   0.07741   0.08527  -0.02255   0.06272   2.61449
    d4        2.55771   0.06825   0.09059  -0.01299   0.07760   2.63531
    d5        2.55488   0.03474   0.08805  -0.00146   0.08659   2.64147
    d6        2.63160  -0.01154  -0.01256  -0.02710  -0.03966   2.59194
    d7        1.96802   0.03361   0.07017   0.01542   0.08559   2.05361
    d8        1.96689   0.03301   0.06917   0.01471   0.08388   2.05077
    d9        1.96745   0.03319   0.06967   0.01457   0.08424   2.05170
   d10        1.96689   0.03303   0.06917   0.01479   0.08396   2.05085
   d11        1.96802   0.03318   0.07017   0.01368   0.08385   2.05187
   d12        5.28842  -0.00086  -0.00252  -0.04892  -0.05145   5.23697
   d13        2.27588   0.00133   0.00736  -0.00939  -0.00203   2.27384
   d14        1.97904   0.03965   0.08005   0.02288   0.10293   2.08197
   d15        1.97904   0.03965   0.08005   0.02288   0.10293   2.08197
   d16        4.33668  -0.00258  -0.00869  -0.12120  -0.12989   4.20679
   d17        1.72024   0.01157   0.01747   0.00280   0.02027   1.74051
   d18        4.33772  -0.00229  -0.00775  -0.10724  -0.11499   4.22273
   d19        1.72072   0.01199   0.01790   0.00322   0.02112   1.74184
   d20        4.33771  -0.00222  -0.00776  -0.10278  -0.11054   4.22716
   d21        1.72072   0.01203   0.01790   0.00334   0.02124   1.74196
         Item               Value     Threshold  Converged?
 Maximum Force            0.077410     0.000450     NO 
 RMS     Force            0.034317     0.000300     NO 
 Maximum Displacement     0.129887     0.001800     NO 
 RMS     Displacement     0.079185     0.001200     NO 
 Predicted change in Energy=-1.512786D-02
 GradGradGradGradGradGradGradGradGradGradGradGradGradGradGradGradGradGrad

 ---------------------------------------------------------------------------------------------------
                            Z-MATRIX (ANGSTROMS AND DEGREES)
   CD    Cent   Atom    N1       Length/X        N2       Alpha/Y        N3        Beta/Z          J
 ---------------------------------------------------------------------------------------------------
      1      1  C 
      2      2  C        1   1.377558(     1)
      3      3  C        2   1.381844(     2)      1  120.000(    22)
      4      4  C        3   1.383529(     3)      2  120.000(    23)      1    0.000(    42)      0
      5      5  C        4   1.394547(     4)      3  120.000(    24)      2    0.000(    43)      0
      6      6  C        5   1.397804(     5)      4  120.000(    25)      3    0.000(    44)      0
      7      7  F        1   1.371596(     6)      2  120.000(    26)      3  180.000(    45)      0
      8      8  H        2   1.086725(     7)      3  120.000(    27)      4  180.000(    46)      0
      9      9  H        3   1.085222(     8)      4  120.000(    28)      5  180.000(    47)      0
     10     10  H        4   1.085712(     9)      5  120.000(    29)      6  180.000(    48)      0
     11     11  H        5   1.085265(    10)      6  120.000(    30)      1  180.000(    49)      0
     12     12  H        6   1.085804(    11)      1  120.000(    31)      2  180.000(    50)      0
     13     13  O        7   2.771286(    12)      1  179.900(    32)      3  180.000(    51)      0
     14     14  C       13   1.203267(    13)      1  179.900(    33)      2  180.000(    52)      0
     15     15  H       14   1.101731(    14)      1  120.000(    34)      2   90.000(    53)      0
     16     16  H       14   1.101731(    15)      1  120.000(    35)      2  -90.000(    54)      0
     17     17  H        7   2.226137(    16)      1  100.000(    36)      2   90.000(    55)      0
     18     18  F       17   0.921036(    17)      7  160.000(    37)      1    0.000(    56)      0
     19     19  H        7   2.234570(    18)      1  100.000(    38)      2  -30.000(    57)      0
     20     20  F       19   0.921741(    19)      7  160.000(    39)      1    0.000(    58)      0
     21     21  H        7   2.236918(    20)      1  100.000(    40)      2 -150.000(    59)      0
     22     22  F       21   0.921805(    21)      7  160.000(    41)      1    0.000(    60)      0
 ---------------------------------------------------------------------------------------------------
                         Z-Matrix orientation:                         
 ---------------------------------------------------------------------
 Center     Atomic      Atomic             Coordinates (Angstroms)
 Number     Number       Type             X           Y           Z
 ---------------------------------------------------------------------
      1          6           0        0.000000    0.000000    0.000000
      2          6           0        0.000000    0.000000    1.377558
      3          6           0        1.196712    0.000000    2.068480
      4          6           0        2.394883    0.000000    1.376716
      5          6           0        2.394883    0.000000   -0.017831
      6          6           0        1.184349    0.000000   -0.716733
      7          9           0       -1.187837   -0.000000   -0.685798
      8          1           0       -0.941131   -0.000000    1.920920
      9          1           0        1.196712   -0.000000    3.153702
     10          1           0        3.335137   -0.000000    1.919572
     11          1           0        3.334750   -0.000000   -0.560463
     12          1           0        1.161968   -0.000000   -1.802307
     13          8           0       -3.585419   -0.000000   -2.075628
     14          6           0       -4.625722   -0.000000   -2.680294
     15          1           0       -5.102355    0.954127   -2.956471
     16          1           0       -5.102355   -0.954127   -2.956471
     17          1           0       -1.522612    2.192317   -0.879080
     18          9           0       -1.384103    3.099360   -0.799112
     19          1           0       -2.476777   -1.100311    0.770654
     20          9           0       -2.731224   -1.554180    1.531486
     21          1           0       -0.570335   -1.101467   -2.532217
     22          9           0       -0.038621   -1.555368   -3.133033
 ---------------------------------------------------------------------
                    Distance matrix (angstroms):
                    1          2          3          4          5
     1  C    0.000000
     2  C    1.377558   0.000000
     3  C    2.389713   1.381844   0.000000
     4  C    2.762392   2.394883   1.383529   0.000000
     5  C    2.394949   2.771746   2.405890   1.394547   0.000000
     6  C    1.384337   2.405980   2.785241   2.418248   1.397804
     7  F    1.371596   2.380839   3.643092   4.133987   3.644456
     8  H    2.139080   1.086725   2.142929   3.380111   3.858464
     9  H    3.373123   2.141683   1.085222   2.143197   3.390315
    10  H    3.848103   3.378893   2.143604   1.085712   2.153511
    11  H    3.381520   3.857004   3.388591   2.153140   1.085265
    12  H    2.144406   3.385514   3.870943   3.409731   2.168970
    13  O    4.142881   4.977924   6.327907   6.905265   6.324440
    14  C    5.346146   6.153330   7.513427   8.108528   7.508502
    15  H    5.973701   6.762262   8.114107   8.711799   8.108917
    16  H    5.973701   6.762262   8.114107   8.711799   8.108917
    17  H    2.810228   3.495285   4.570458   5.024105   4.571079
    18  F    3.487170   4.032328   4.948709   5.349859   4.949461
    19  H    2.817626   2.777308   4.048402   5.031010   5.056230
    20  F    3.495784   3.146228   4.258229   5.358769   5.576095
    21  H    2.819687   4.101811   5.049960   5.028469   4.040777
    22  F    3.498079   4.771383   5.567850   5.355272   4.248010
                    6          7          8          9         10
     6  C    0.000000
     7  F    2.372388   0.000000
     8  H    3.387459   2.618367   0.000000
     9  H    3.870455   4.519716   2.467818   0.000000
    10  H    3.402351   5.219698   4.276269   2.468996   0.000000
    11  H    2.156071   4.524323   4.943725   4.285584   2.480035
    12  H    1.085804   2.601571   4.276148   4.956131   4.309878
    13  O    4.959565   2.771286   4.792145   7.086231   7.990978
    14  C    6.132902   3.974552   5.894691   8.242345   9.194240
    15  H    6.741619   4.624907   6.481904   8.827390   9.791702
    16  H    6.741619   4.624907   6.481905   8.827390   9.791702
    17  H    3.487154   2.226137   3.603384   5.335195   6.019670
    18  F    4.026135   3.107635   4.147389   5.647246   6.266459
    19  H    4.102054   2.234570   2.211788   4.514878   6.025699
    20  F    4.775110   3.116708   2.402408   4.525013   6.274299
    21  H    2.754655   2.236918   4.602299   6.055193   6.023650
    22  F    3.123032   3.119107   5.364339   6.593046   6.271382
                   11         12         13         14         15
    11  H    0.000000
    12  H    2.502630   0.000000
    13  O    7.084099   4.755248   0.000000
    14  C    8.237887   5.853906   1.203267   0.000000
    15  H    8.822468   6.440822   1.996832   1.101731   0.000000
    16  H    8.822468   6.440822   1.996832   1.101731   1.908254
    17  H    5.338701   3.586860   3.239314   4.204749   4.320096
    18  F    5.650713   4.134599   4.010152   4.863432   4.804334
    19  H    6.062706   4.590346   3.246704   4.211613   5.000583
    20  F    6.602103   5.355986   4.019502   4.872749   5.661768
    21  H    4.511178   2.178731   3.242289   4.204916   4.994464
    22  F    4.518507   2.373060   4.014605   4.864734   5.654215
                   16         17         18         19         20
    16  H    0.000000
    17  H    5.199060   0.000000
    18  F    5.908499   0.921036   0.000000
    19  H    4.561413   3.804399   4.614688   0.000000
    20  F    5.111172   4.616038   5.376045   0.921741   0.000000
    21  H    4.554219   3.806403   4.616581   3.813592   4.624724
    22  F    5.102359   4.618189   5.378104   4.624982   5.385894
                   21         22
    21  H    0.000000
    22  F    0.921805   0.000000
 Stoichiometry    C7H10F4O
 Framework group  C1[X(C7H10F4O)]
 Deg. of freedom    60
 Full point group                 C1      NOp   1
 Largest Abelian subgroup         C1      NOp   1
 Largest concise Abelian subgroup C1      NOp   1
                         Standard orientation:                         
 ---------------------------------------------------------------------
 Center     Atomic      Atomic             Coordinates (Angstroms)
 Number     Number       Type             X           Y           Z
 ---------------------------------------------------------------------
      1          6           0       -0.822614    0.004404    0.000788
      2          6           0       -1.511505    1.197339   -0.000846
      3          6           0       -2.893349    1.197209   -0.001283
      4          6           0       -3.585001   -0.001026   -0.000079
      5          6           0       -2.887615   -1.208673    0.001575
      6          6           0       -1.489811   -1.208541    0.002017
      7          9           0        0.548981    0.004533    0.001222
      8          1           0       -0.968231    2.138520   -0.001791
      9          1           0       -3.436048    2.136988   -0.002570
     10          1           0       -4.670713   -0.001128   -0.000422
     11          1           0       -3.430159   -2.148590    0.002519
     12          1           0       -0.927554   -2.137431    0.003297
     13          8           0        3.320264   -0.000044    0.002104
     14          6           0        4.523526   -0.003436    0.002488
     15          1           0        5.074089   -0.003111    0.956790
     16          1           0        5.074692   -0.005376   -0.951463
     17          1           0        0.934853    0.007171    2.193659
     18          9           0        0.774629    0.008233    3.100652
     19          1           0        0.937180    1.909056   -1.101228
     20          9           0        0.777192    2.694626   -1.556080
     21          1           0        0.937945   -1.904534   -1.097857
     22          9           0        0.778092   -2.691266   -1.550875
 ---------------------------------------------------------------------
 Rotational constants (GHZ):           0.7724174           0.3996933           0.3738682
 Standard basis: 6-311++G(d,p) (5D, 7F)
 There are   346 symmetry adapted cartesian basis functions of A   symmetry.
 There are   334 symmetry adapted basis functions of A   symmetry.
   334 basis functions,   522 primitive gaussians,   346 cartesian basis functions
    48 alpha electrons       48 beta electrons
       nuclear repulsion energy       685.2507502835 Hartrees.
 NAtoms=   22 NActive=   22 NUniq=   22 SFac= 1.00D+00 NAtFMM=   60 NAOKFM=F Big=F
 Integral buffers will be    131072 words long.
 Raffenetti 2 integral format.
 Two-electron integral symmetry is turned on.
 One-electron integrals computed using PRISM.
 NBasis=   334 RedAO= T EigKep=  4.80D-06  NBF=   334
 NBsUse=   333 1.00D-06 EigRej=  7.63D-07 NBFU=   333
 Initial guess from the checkpoint file:  "model_H3.chk"
 B after Tr=     0.000000    0.000000    0.000000
         Rot=    1.000000    0.000596    0.000128   -0.000495 Ang=   0.09 deg.
 ExpMin= 3.60D-02 ExpMax= 1.14D+04 ExpMxC= 1.72D+03 IAcc=3 IRadAn=         5 AccDes= 0.00D+00
 Harris functional with IExCor= 1009 and IRadAn=       5 diagonalized for initial guess.
 HarFok:  IExCor= 1009 AccDes= 0.00D+00 IRadAn=         5 IDoV= 1 UseB2=F ITyADJ=14
 ICtDFT=  3500011 ScaDFX=  1.000000  1.000000  1.000000  1.000000
 FoFCou: FMM=F IPFlag=           0 FMFlag=      100000 FMFlg1=           0
         NFxFlg=           0 DoJE=T BraDBF=F KetDBF=T FulRan=T
         wScrn=  0.000000 ICntrl=       500 IOpCl=  0 I1Cent=   200000004 NGrid=           0
         NMat0=    1 NMatS0=      1 NMatT0=    0 NMatD0=    1 NMtDS0=    0 NMtDT0=    0
 Petite list used in FoFCou.
 Requested convergence on RMS density matrix=1.00D-08 within 128 cycles.
 Requested convergence on MAX density matrix=1.00D-06.
 Requested convergence on             energy=1.00D-06.
 No special actions if energy rises.
 SCF Done:  E(RM062X) =  -747.275866326     A.U. after   12 cycles
            NFock= 12  Conv=0.72D-08     -V/T= 2.0030
 Calling FoFJK, ICntrl=      2127 FMM=F ISym2X=0 I1Cent= 0 IOpClX= 0 NMat=1 NMatS=1 NMatT=0.
 ***** Axes restored to original set *****
 -------------------------------------------------------------------
 Center     Atomic                   Forces (Hartrees/Bohr)
 Number     Number              X              Y              Z
 -------------------------------------------------------------------
      1        6           0.017239894    0.000341157    0.001365043
      2        6          -0.021056826    0.000664750    0.005406827
      3        6           0.004353300    0.000271835    0.003912005
      4        6           0.007861214   -0.000363074   -0.004853018
      5        6          -0.005037767    0.000264356    0.001655831
      6        6           0.001840794    0.000781369   -0.004983133
      7        9           0.003165713   -0.000180511    0.003780838
      8        1           0.001735995    0.000092672   -0.001141888
      9        1          -0.001533301    0.000001044   -0.001928535
     10        1          -0.001411758    0.000003881   -0.001345311
     11        1          -0.002540460    0.000002470   -0.000277602
     12        1           0.001640779    0.000222309    0.002065968
     13        8          -0.002278467    0.000122980   -0.001410632
     14        6           0.010454267   -0.000003516    0.006274689
     15        1          -0.003673025   -0.002128772   -0.002196861
     16        1          -0.003683762    0.002131906   -0.002205957
     17        1          -0.001441158   -0.001049272   -0.000828466
     18        9           0.000206382   -0.001537995    0.000116356
     19        1          -0.001616150   -0.000892056   -0.002932478
     20        9           0.000046179    0.001189049   -0.000799202
     21        1          -0.003443155   -0.001080337    0.000005939
     22        9          -0.000828691    0.001145757    0.000319585
 -------------------------------------------------------------------
 Cartesian Forces:  Max     0.021056826 RMS     0.004331602
[...]
 Center     Atomic      Atomic             Coordinates (Angstroms)
 Number     Number       Type             X           Y           Z
 ---------------------------------------------------------------------
      1          6           0       -0.790191    0.006664    0.010267
      2          6           0       -1.478836    1.199039   -0.002935
      3          6           0       -2.860658    1.198820   -0.008713
      4          6           0       -3.553521   -0.001581   -0.001220
      5          6           0       -2.856432   -1.208577    0.012144
      6          6           0       -1.459095   -1.208356    0.017987
      7          9           0        0.599714    0.006884    0.016079
      8          1           0       -0.937575    2.136786   -0.008788
      9          1           0       -3.401912    2.135991   -0.019089
     10          1           0       -4.636495   -0.001752   -0.005749
     11          1           0       -3.397410   -2.145835    0.017994
     12          1           0       -0.899210   -2.134023    0.028342
     13          8           0        3.190361    0.002771    0.026952
     14          6           0        4.391835   -0.000501    0.032006
     15          1           0        4.938927    0.006999    0.988788
     16          1           0        4.946939   -0.009526   -0.920199
     17          1           0        0.924259    0.023255    1.902705
     18          9           0        0.760391    0.031088    2.809810
     19          1           0        0.957301    1.734923   -1.000130
     20          9           0        0.798983    2.517378   -1.461638
     21          1           0        0.961488   -1.756758   -0.980433
     22          9           0        0.803377   -2.547046   -1.428282
 ---------------------------------------------------------------------
 Rotational constants (GHZ):           0.8794864           0.4287253           0.3949060

 **********************************************************************

            Population analysis using the SCF Density.

 **********************************************************************

 Orbital symmetries:
       Occupied  (A) (A) (A) (A) (A) (A) (A) (A) (A) (A) (A) (A)
                 (A) (A) (A) (A) (A) (A) (A) (A) (A) (A) (A) (A)
                 (A) (A) (A) (A) (A) (A) (A) (A) (A) (A) (A) (A)
                 (A) (A) (A) (A) (A) (A) (A) (A) (A) (A) (A) (A)
       Virtual   (A) (A) (A) (A) (A) (A) (A) (A) (A) (A) (A) (A)
                 (A) (A) (A) (A) (A) (A) (A) (A) (A) (A) (A) (A)
                 (A) (A) (A) (A) (A) (A) (A) (A) (A) (A) (A) (A)
                 (A) (A) (A) (A) (A) (A) (A) (A) (A) (A) (A) (A)
                 (A) (A) (A) (A) (A) (A) (A) (A) (A) (A) (A) (A)
                 (A) (A) (A) (A) (A) (A) (A) (A) (A) (A) (A) (A)
                 (A) (A) (A) (A) (A) (A) (A) (A) (A) (A) (A) (A)
                 (A) (A) (A) (A) (A) (A) (A) (A) (A) (A) (A) (A)
                 (A) (A) (A) (A) (A) (A) (A) (A) (A) (A) (A) (A)
                 (A) (A) (A) (A) (A) (A) (A) (A) (A) (A) (A) (A)
                 (A) (A) (A) (A) (A) (A) (A) (A) (A) (A) (A) (A)
                 (A) (A) (A) (A) (A) (A) (A) (A) (A) (A) (A) (A)
                 (A) (A) (A) (A) (A) (A) (A) (A) (A) (A) (A) (A)
                 (A) (A) (A) (A) (A) (A) (A) (A) (A) (A) (A) (A)
                 (A) (A) (A) (A) (A) (A) (A) (A) (A) (A) (A) (A)
                 (A) (A) (A) (A) (A) (A) (A) (A) (A) (A) (A) (A)
                 (A) (A) (A) (A) (A) (A) (A) (A) (A) (A) (A) (A)
                 (A) (A) (A) (A) (A) (A) (A) (A) (A) (A) (A) (A)
                 (A) (A) (A) (A) (A) (A) (A) (A) (A) (A) (A) (A)
                 (A) (A) (A) (A) (A) (A) (A) (A) (A) (A) (A) (A)
                 (A) (A) (A) (A) (A) (A) (A) (A) (A) (A) (A) (A)
                 (A) (A) (A) (A) (A) (A) (A) (A) (A) (A) (A) (A)
                 (A) (A) (A) (A) (A) (A) (A) (A) (A) (A) (A) (A)
                 (A) (A) (A) (A) (A) (A) (A) (A) (A)
 The electronic state is 1-A.
 Alpha  occ. eigenvalues --  -25.30969 -25.22941 -25.22860 -25.21591 -19.66434
 Alpha  occ. eigenvalues --  -10.65912 -10.65666 -10.57397 -10.57187 -10.57136
 Alpha  occ. eigenvalues --  -10.56940 -10.56523  -1.41753  -1.34121  -1.34035
 Alpha  occ. eigenvalues --   -1.32712  -1.21232  -0.99540  -0.87730  -0.87581
 Alpha  occ. eigenvalues --   -0.74619  -0.73602  -0.73145  -0.66011  -0.65184
 Alpha  occ. eigenvalues --   -0.64552  -0.63485  -0.60451  -0.60338  -0.59738
 Alpha  occ. eigenvalues --   -0.59639  -0.55758  -0.54075  -0.53010  -0.52332
 Alpha  occ. eigenvalues --   -0.51218  -0.51143  -0.50916  -0.50170  -0.49893
 Alpha  occ. eigenvalues --   -0.49889  -0.49645  -0.46292  -0.45204  -0.43062
 Alpha  occ. eigenvalues --   -0.36753  -0.33542  -0.33210
 Alpha virt. eigenvalues --   -0.02811  -0.00814  -0.00538  -0.00197   0.00088
 Alpha virt. eigenvalues --    0.01106   0.01276   0.01807   0.02919   0.02938
 Alpha virt. eigenvalues --    0.04588   0.05578   0.06010   0.06388   0.07676
 Alpha virt. eigenvalues --    0.08361   0.09141   0.10030   0.10099   0.10510
 Alpha virt. eigenvalues --    0.11371   0.11817   0.12062   0.12592   0.12672
 Alpha virt. eigenvalues --    0.13109   0.13641   0.13817   0.14166   0.15271
 Alpha virt. eigenvalues --    0.15345   0.15955   0.16021   0.17097   0.17312
 Alpha virt. eigenvalues --    0.17700   0.18615   0.19750   0.19845   0.20491
 Alpha virt. eigenvalues --    0.20763   0.20929   0.22150   0.22323   0.23420
 Alpha virt. eigenvalues --    0.25127   0.26101   0.26996   0.27875   0.28844
 Alpha virt. eigenvalues --    0.29102   0.29165   0.30137   0.30622   0.31390
 Alpha virt. eigenvalues --    0.31632   0.32246   0.34183   0.34578   0.34916
 Alpha virt. eigenvalues --    0.36280   0.36516   0.37756   0.37947   0.38511
 Alpha virt. eigenvalues --    0.39364   0.39477   0.39558   0.41064   0.41548
 Alpha virt. eigenvalues --    0.42777   0.43702   0.45266   0.46580   0.47129
 Alpha virt. eigenvalues --    0.49762   0.50879   0.52671   0.54617   0.55957
 Alpha virt. eigenvalues --    0.56660   0.57141   0.58054   0.58407   0.59042
 Alpha virt. eigenvalues --    0.60078   0.60731   0.60764   0.61586   0.62535
 Alpha virt. eigenvalues --    0.63606   0.65823   0.66397   0.67382   0.67786
 Alpha virt. eigenvalues --    0.69910   0.72487   0.74057   0.74867   0.75536
 Alpha virt. eigenvalues --    0.75606   0.76926   0.79774   0.81036   0.83598
 Alpha virt. eigenvalues --    0.86953   0.87197   0.88653   0.90659   0.92116
 Alpha virt. eigenvalues --    0.93911   0.94016   1.01324   1.02835   1.04002
 Alpha virt. eigenvalues --    1.04563   1.04816   1.05131   1.06768   1.12850
 Alpha virt. eigenvalues --    1.14779   1.16038   1.17584   1.19537   1.21413
 Alpha virt. eigenvalues --    1.23038   1.30965   1.32036   1.32607   1.34622
 Alpha virt. eigenvalues --    1.35188   1.36896   1.37822   1.37879   1.38781
 Alpha virt. eigenvalues --    1.41761   1.43330   1.44607   1.46678   1.46880
 Alpha virt. eigenvalues --    1.48147   1.50778   1.52239   1.52674   1.53774
 Alpha virt. eigenvalues --    1.54914   1.55597   1.56995   1.59199   1.59558
 Alpha virt. eigenvalues --    1.59790   1.60494   1.60922   1.62291   1.64790
 Alpha virt. eigenvalues --    1.67030   1.68308   1.68951   1.69249   1.72169
 Alpha virt. eigenvalues --    1.75071   1.75791   1.76341   1.78156   1.81068
 Alpha virt. eigenvalues --    1.85382   1.85941   1.87802   1.90724   1.93567
 Alpha virt. eigenvalues --    1.93929   1.94052   1.95512   1.96536   1.98894
 Alpha virt. eigenvalues --    2.00941   2.01772   2.03278   2.05268   2.08459
 Alpha virt. eigenvalues --    2.09390   2.10529   2.14514   2.16221   2.26533
 Alpha virt. eigenvalues --    2.27811   2.29578   2.32042   2.34444   2.37239
 Alpha virt. eigenvalues --    2.42691   2.43575   2.46661   2.48508   2.50050
 Alpha virt. eigenvalues --    2.51710   2.52301   2.58287   2.60901   2.62415
 Alpha virt. eigenvalues --    2.64991   2.66476   2.68145   2.70781   2.71957
 Alpha virt. eigenvalues --    2.72395   2.73364   2.74287   2.75692   2.75921
 Alpha virt. eigenvalues --    2.84045   2.84751   2.84953   2.88040   2.93554
 Alpha virt. eigenvalues --    2.93787   2.95019   2.97749   2.98894   3.13755
 Alpha virt. eigenvalues --    3.19696   3.22598   3.37481   3.39008   3.42303
 Alpha virt. eigenvalues --    3.47100   3.52758   3.54870   3.55073   3.65809
 Alpha virt. eigenvalues --    3.72389   3.77720   3.85051   3.89693   3.89923
 Alpha virt. eigenvalues --    3.89961   3.90429   3.90789   3.90865   3.91099
 Alpha virt. eigenvalues --    3.99682   4.02420   4.06923   4.08196   4.11174
 Alpha virt. eigenvalues --    4.13218   4.14160   4.14255   4.15238   4.15860
 Alpha virt. eigenvalues --    4.17470   4.17990   4.20344   4.84988   4.89049
 Alpha virt. eigenvalues --    4.89745   4.90065   4.92084   5.10501   5.20118
 Alpha virt. eigenvalues --    5.80433   6.43399   6.44605   6.44663   6.48853
 Alpha virt. eigenvalues --    6.49539   6.51221   6.51318   6.55330   6.85998
 Alpha virt. eigenvalues --    6.88002   6.90468   6.91548  23.68348  23.98531
 Alpha virt. eigenvalues --   24.00899  24.04386  24.14819  24.16414  24.26843
 Alpha virt. eigenvalues --   50.04730  66.91526  66.91860  66.92422  66.93955
          Condensed to atoms (all electrons):
               1          2          3          4          5          6
     1  C   17.526931  -2.117648  -3.584211  -1.196592  -2.995929  -1.360931
     2  C   -2.117648  17.079445   2.484622  -0.835295  -1.274839  -9.504195
     3  C   -3.584211   2.484622   8.248810   0.938014  -0.547511  -1.664363
     4  C   -1.196592  -0.835295   0.938014   6.669432   0.843150  -0.657160
     5  C   -2.995929  -1.274839  -0.547511   0.843150   7.763874   2.090157
     6  C   -1.360931  -9.504195  -1.664363  -0.657160   2.090157  16.900170
     7  F    0.283097  -0.205789  -0.019075   0.020988  -0.017974  -0.198802
     8  H   -0.206168   0.444675   0.027249  -0.000323   0.040780  -0.022691
     9  H    0.002953  -0.033482   0.402275  -0.062243  -0.004934   0.026159
    10  H    0.028481  -0.015884  -0.069076   0.460386  -0.067215  -0.011495
    11  H    0.008493   0.030884  -0.005794  -0.064253   0.399156  -0.038682
    12  H   -0.221713  -0.041063   0.038284   0.005570   0.031885   0.467775
    13  O    0.016662  -0.011228   0.000407   0.000641   0.000608  -0.008873
    14  C   -0.004107  -0.000305   0.001153   0.000282   0.001168   0.000461
    15  H   -0.000998   0.000342   0.000111  -0.000111   0.000118   0.000489
    16  H    0.000898  -0.000229  -0.000083   0.000032  -0.000076  -0.000241
    17  H    0.024918  -0.005047  -0.007656  -0.003571  -0.007298  -0.010336
    18  F    0.242551  -0.072591  -0.028369   0.003917  -0.026373  -0.071408
    19  H   -0.062405   0.070343   0.022710   0.009207  -0.007639  -0.029088
    20  F   -0.048128   0.071942   0.011106  -0.004166   0.002373  -0.026721
    21  H   -0.061764  -0.029830  -0.008428   0.008999   0.021444   0.073517
    22  F   -0.041861  -0.024680   0.002032  -0.003984   0.007007   0.066721
               7          8          9         10         11         12
     1  C    0.283097  -0.206168   0.002953   0.028481   0.008493  -0.221713
     2  C   -0.205789   0.444675  -0.033482  -0.015884   0.030884  -0.041063
     3  C   -0.019075   0.027249   0.402275  -0.069076  -0.005794   0.038284
     4  C    0.020988  -0.000323  -0.062243   0.460386  -0.064253   0.005570
     5  C   -0.017974   0.040780  -0.004934  -0.067215   0.399156   0.031885
     6  C   -0.198802  -0.022691   0.026159  -0.011495  -0.038682   0.467775
     7  F    9.268456  -0.001300  -0.002023   0.000794  -0.002073  -0.001364
     8  H   -0.001300   0.528283  -0.011810   0.000926   0.001077   0.000692
     9  H   -0.002023  -0.011810   0.475106  -0.010467   0.000740   0.001001
    10  H    0.000794   0.000926  -0.010467   0.498290  -0.010112   0.000903
    11  H   -0.002073   0.001077   0.000740  -0.010112   0.473884  -0.011342
    12  H   -0.001364   0.000692   0.001001   0.000903  -0.011342   0.530957
    13  O    0.010469  -0.000684  -0.000014   0.000013  -0.000015  -0.000759
    14  C    0.000683   0.000355  -0.000016   0.000009  -0.000016   0.000366
    15  H   -0.000550   0.000269   0.000001  -0.000001   0.000001   0.000284
    16  H   -0.000309  -0.000122   0.000000  -0.000000   0.000000  -0.000125
    17  H    0.029352  -0.004177   0.000550  -0.000226   0.000558  -0.004367
    18  F   -0.012274   0.001762  -0.000721   0.000182  -0.000707   0.001569
    19  H    0.018451  -0.013179   0.001019   0.000091  -0.000344   0.002073
    20  F   -0.004957   0.010381  -0.001478  -0.000110   0.000218  -0.001096
    21  H    0.017905   0.002087  -0.000355   0.000096   0.001037  -0.013288
    22  F   -0.004587  -0.001089   0.000221  -0.000104  -0.001562   0.011051
              13         14         15         16         17         18
     1  C    0.016662  -0.004107  -0.000998   0.000898   0.024918   0.242551
     2  C   -0.011228  -0.000305   0.000342  -0.000229  -0.005047  -0.072591
     3  C    0.000407   0.001153   0.000111  -0.000083  -0.007656  -0.028369
     4  C    0.000641   0.000282  -0.000111   0.000032  -0.003571   0.003917
     5  C    0.000608   0.001168   0.000118  -0.000076  -0.007298  -0.026373
     6  C   -0.008873   0.000461   0.000489  -0.000241  -0.010336  -0.071408
     7  F    0.010469   0.000683  -0.000550  -0.000309   0.029352  -0.012274
     8  H   -0.000684   0.000355   0.000269  -0.000122  -0.004177   0.001762
     9  H   -0.000014  -0.000016   0.000001   0.000000   0.000550  -0.000721
    10  H    0.000013   0.000009  -0.000001  -0.000000  -0.000226   0.000182
    11  H   -0.000015  -0.000016   0.000001   0.000000   0.000558  -0.000707
    12  H   -0.000759   0.000366   0.000284  -0.000125  -0.004367   0.001569
    13  O    8.159130   0.256200  -0.091268  -0.090891   0.006641  -0.000299
    14  C    0.256200   4.913546   0.409114   0.405259  -0.002084  -0.000236
    15  H   -0.091268   0.409114   0.656231  -0.100507   0.000145   0.000123
    16  H   -0.090891   0.405259  -0.100507   0.657712  -0.000308  -0.000009
    17  H    0.006641  -0.002084   0.000145  -0.000308   0.397250   0.313673
    18  F   -0.000299  -0.000236   0.000123  -0.000009   0.313673   8.902654
    19  H    0.008729  -0.000318  -0.000490  -0.000179   0.003528  -0.002594
    20  F   -0.000842   0.000271  -0.000029  -0.000100  -0.002171   0.000497
    21  H    0.008711  -0.000277  -0.000472  -0.000202   0.003517  -0.002494
    22  F   -0.000855   0.000277  -0.000036  -0.000098  -0.002107   0.000483
              19         20         21         22
     1  C   -0.062405  -0.048128  -0.061764  -0.041861
     2  C    0.070343   0.071942  -0.029830  -0.024680
     3  C    0.022710   0.011106  -0.008428   0.002032
     4  C    0.009207  -0.004166   0.008999  -0.003984
     5  C   -0.007639   0.002373   0.021444   0.007007
     6  C   -0.029088  -0.026721   0.073517   0.066721
     7  F    0.018451  -0.004957   0.017905  -0.004587
     8  H   -0.013179   0.010381   0.002087  -0.001089
     9  H    0.001019  -0.001478  -0.000355   0.000221
    10  H    0.000091  -0.000110   0.000096  -0.000104
    11  H   -0.000344   0.000218   0.001037  -0.001562
    12  H    0.002073  -0.001096  -0.013288   0.011051
    13  O    0.008729  -0.000842   0.008711  -0.000855
    14  C   -0.000318   0.000271  -0.000277   0.000277
    15  H   -0.000490  -0.000029  -0.000472  -0.000036
    16  H   -0.000179  -0.000100  -0.000202  -0.000098
    17  H    0.003528  -0.002171   0.003517  -0.002107
    18  F   -0.002594   0.000497  -0.002494   0.000483
    19  H    0.439665   0.309022   0.000592  -0.001544
    20  F    0.309022   8.917454  -0.001549   0.000696
    21  H    0.000592  -0.001549   0.439422   0.309005
    22  F   -0.001544   0.000696   0.309005   8.916802
 Mulliken charges:
               1
     1  C   -0.232528
     2  C   -0.010147
     3  C   -0.242206
     4  C   -0.132920
     5  C   -0.251932
     6  C   -0.020460
     7  F   -0.179120
     8  H    0.203007
     9  H    0.217520
    10  H    0.194520
    11  H    0.218852
    12  H    0.202707
    13  O   -0.262482
    14  C    0.018214
    15  H    0.127235
    16  H    0.129580
    17  H    0.269214
    18  F   -0.249338
    19  H    0.232354
    20  F   -0.232612
    21  H    0.232329
    22  F   -0.231788
 Sum of Mulliken charges =  -0.00000
 Mulliken charges with hydrogens summed into heavy atoms:
               1
     1  C   -0.232528
     2  C    0.192860
     3  C   -0.024687
     4  C    0.061600
     5  C   -0.033080
     6  C    0.182247
     7  F   -0.179120
    13  O   -0.262482
    14  C    0.275029
    18  F    0.019876
    20  F   -0.000258
    22  F    0.000541
 Electronic spatial extent (au):  <R**2>=           3037.4732
 Charge=              0.0000 electrons
 Dipole moment (field-independent basis, Debye):
    X=              0.8492    Y=             -0.0106    Z=             -0.1253  Tot=              0.8585
 Quadrupole moment (field-independent basis, Debye-Ang):
   XX=            -37.1539   YY=            -75.9044   ZZ=            -86.0221
   XY=             -0.1072   XZ=              0.2031   YZ=             -0.1089
 Traceless Quadrupole moment (field-independent basis, Debye-Ang):
   XX=             29.2062   YY=             -9.5443   ZZ=            -19.6620
   XY=             -0.1072   XZ=              0.2031   YZ=             -0.1089
 Octapole moment (field-independent basis, Debye-Ang**2):
  XXX=            123.1782  YYY=              0.7556  ZZZ=            -22.3558  XYY=             -9.8861
  XXY=              0.1577  XXZ=              0.6245  XZZ=             17.0710  YZZ=             -0.4809
  YYZ=             23.5144  XYZ=              0.2079
 Hexadecapole moment (field-independent basis, Debye-Ang**3):
 XXXX=          -1662.4932 YYYY=           -815.2969 ZZZZ=           -580.9175 XXXY=             -0.7637
 XXXZ=              4.4196 YYYX=              0.1473 YYYZ=             -0.5066 ZZZX=            -16.1783
 ZZZY=              0.1443 XXYY=           -504.2556 XXZZ=           -512.3520 YYZZ=           -247.4896
 XXYZ=             -0.3862 YYXZ=             18.5076 ZZXY=             -0.6522
 N-N= 7.044643393558D+02 E-N=-3.173105972471D+03  KE= 7.450612144755D+02
 1\1\GINC-R820\POpt\RM062X\6-311++G(d,p)\C7H10F4O1\ZJXU\17-Jun-2024\1\\
 # m062x 6-311++G(d,p) opt=z-matrix\\test\\0,1\C\C,1,d1\C,2,d2,1,120.\C
 ,3,d3,2,120.,1,0.,0\C,4,d4,3,120.,2,0.,0\C,5,d5,4,120.,3,0.,0\F,1,d6,2
 ,120.,3,180.,0\H,2,d7,3,120.,4,180.,0\H,3,d8,4,120.,5,180.,0\H,4,d9,5,
 120.,6,180.,0\H,5,d10,6,120.,1,180.,0\H,6,d11,1,120.,2,180.,0\O,7,d12,
 1,179.9,3,180.,0\C,13,d13,1,179.9,2,180.,0\H,14,d14,1,120.,2,90.,0\H,1
 4,d15,1,120.,2,-90.,0\H,7,d16,1,100.,2,90.,0\F,17,d17,7,160.,1,0.,0\H,
 7,d18,1,100.,2,-30.,0\F,19,d19,7,160.,1,0.,0\H,7,d20,1,100.,2,-150.,0\
 F,21,d21,7,160.,1,0.,0\\d1=1.37701225\d2=1.38183393\d3=1.38603036\d4=1
 .39389735\d5=1.39734908\d6=1.3899174\d7=1.08275911\d8=1.08229005\d9=1.
 0829841\d10=1.08219414\d11=1.08186783\d12=2.59067218\d13=1.20148993\d1
 4=1.10217813\d15=1.10223158\d16=1.91440674\d17=0.9218207\d18=2.0363377
 9\d19=0.92211108\d20=2.05775345\d21=0.9220211\\Version=ES64L-G16RevB.0
 1\State=1-A\HF=-747.2777675\RMSD=7.179e-09\RMSF=4.507e-03\Dipole=-0.28
 72738,-0.0507308,-0.170227\Quadrupole=14.4390146,-14.61965,0.1806353,0
 .0091713,12.5173075,-0.0125807\PG=C01 [X(C7H10F4O1)]\\@


 IF YOU WANT TO LEARN FROM THE THEORETICAL PHYSICISTS ABOUT THE
 METHODS WHICH THEY USE, I ADVISE YOU TO FOLLOW THIS PRINCIPLE VERY STRICTLY:
 DON'T LISTEN TO THEIR WORDS; PAY ATTENTION, INSTEAD, TO THEIR ACTIONS.
 -- A.EINSTEIN, 1934
 Job cpu time:       0 days  2 hours  0 minutes 54.4 seconds.
 Elapsed time:       0 days  0 hours 30 minutes 16.4 seconds.
 File lengths (MBytes):  RWF=     72 Int=      0 D2E=      0 Chk=      9 Scr=      1
 Normal termination of Gaussian 16 at Mon Jun 17 10:18:26 2024.
