 Entering Gaussian System, Link 0=g16
 Input=model_H1.gjf
 Output=model_H1.log
 Initial command:
 /home/zjxu/prog/g16/l1.exe "/home/zjxu/zjhan/5_model/HF/vacuum/Gau-48118.inp" -scrdir="/home/zjxu/zjhan/5_model/HF/vacuum/"
 Entering Link 1 = /home/zjxu/prog/g16/l1.exe PID=     48119.
  
 Copyright (c) 1988-2017, Gaussian, Inc.  All Rights Reserved.
  
 This is part of the Gaussian(R) 16 program.  It is based on
 the Gaussian(R) 09 system (copyright 2009, Gaussian, Inc.),
 the Gaussian(R) 03 system (copyright 2003, Gaussian, Inc.),
 the Gaussian(R) 98 system (copyright 1998, Gaussian, Inc.),
 the Gaussian(R) 94 system (copyright 1995, Gaussian, Inc.),
 the Gaussian 92(TM) system (copyright 1992, Gaussian, Inc.),
 the Gaussian 90(TM) system (copyright 1990, Gaussian, Inc.),
 the Gaussian 88(TM) system (copyright 1988, Gaussian, Inc.),
 the Gaussian 86(TM) system (copyright 1986, Carnegie Mellon
 University), and the Gaussian 82(TM) system (copyright 1983,
 Carnegie Mellon University). Gaussian is a federally registered
 trademark of Gaussian, Inc.
  
 This software contains proprietary and confidential information,
 including trade secrets, belonging to Gaussian, Inc.
  
 This software is provided under written license and may be
 used, copied, transmitted, or stored only in accord with that
 written license.
  
 The following legend is applicable only to US Government
 contracts under FAR:
  
                    RESTRICTED RIGHTS LEGEND
  
 Use, reproduction and disclosure by the US Government is
 subject to restrictions as set forth in subparagraphs (a)
 and (c) of the Commercial Computer Software - Restricted
 Rights clause in FAR 52.227-19.
  
 Gaussian, Inc.
 340 Quinnipiac St., Bldg. 40, Wallingford CT 06492
  
  
 ---------------------------------------------------------------
 Warning -- This program may not be used in any manner that
 competes with the business of Gaussian, Inc. or will provide
 assistance to any competitor of Gaussian, Inc.  The licensee
 of this program is prohibited from giving any competitor of
 Gaussian, Inc. access to this program.  By using this program,
 the user acknowledges that Gaussian, Inc. is engaged in the
 business of creating and licensing software in the field of
 computational chemistry and represents and warrants to the
 licensee that it is not a competitor of Gaussian, Inc. and that
 it will not use this program in any manner prohibited above.
 ---------------------------------------------------------------
  

 Cite this work as:
 Gaussian 16, Revision B.01,
 M. J. Frisch, G. W. Trucks, H. B. Schlegel, G. E. Scuseria, 
 M. A. Robb, J. R. Cheeseman, G. Scalmani, V. Barone, 
 G. A. Petersson, H. Nakatsuji, X. Li, M. Caricato, A. V. Marenich, 
 J. Bloino, B. G. Janesko, R. Gomperts, B. Mennucci, H. P. Hratchian, 
 J. V. Ortiz, A. F. Izmaylov, J. L. Sonnenberg, D. Williams-Young, 
 F. Ding, F. Lipparini, F. Egidi, J. Goings, B. Peng, A. Petrone, 
 T. Henderson, D. Ranasinghe, V. G. Zakrzewski, J. Gao, N. Rega, 
 G. Zheng, W. Liang, M. Hada, M. Ehara, K. Toyota, R. Fukuda, 
 J. Hasegawa, M. Ishida, T. Nakajima, Y. Honda, O. Kitao, H. Nakai, 
 T. Vreven, K. Throssell, J. A. Montgomery, Jr., J. E. Peralta, 
 F. Ogliaro, M. J. Bearpark, J. J. Heyd, E. N. Brothers, K. N. Kudin, 
 V. N. Staroverov, T. A. Keith, R. Kobayashi, J. Normand, 
 K. Raghavachari, A. P. Rendell, J. C. Burant, S. S. Iyengar, 
 J. Tomasi, M. Cossi, J. M. Millam, M. Klene, C. Adamo, R. Cammi, 
 J. W. Ochterski, R. L. Martin, K. Morokuma, O. Farkas, 
 J. B. Foresman, and D. J. Fox, Gaussian, Inc., Wallingford CT, 2016.
 
 ******************************************
 Gaussian 16:  ES64L-G16RevB.01 20-Dec-2017
                28-Mar-2024 
 ******************************************
 %mem=2GB
 %nproc=2
 Will use up to    2 processors via shared memory.
 %chk=model_H1
 ----------------------------------
 # m062x 6-311++G(d,p) opt=z-matrix
 ----------------------------------
 1/10=7,18=40,26=3,38=1/1,3;
 2/12=2,17=6,18=5,29=3,40=1/2;
 3/5=4,6=6,7=1111,11=2,25=1,30=1,71=1,74=-55/1,2,3;
 4//1;
 5/5=2,38=5/2;
 6/7=2,8=2,9=2,10=2,28=1/1;
 7/29=1/1,2,3,16;
 1/10=7,18=40,26=3/3(2);
 2/29=3/2;
 99//99;
 2/29=3/2;
 3/5=4,6=6,7=1111,11=2,25=1,30=1,71=1,74=-55/1,2,3;
 4/5=5,16=3,69=1/1;
 5/5=2,38=5/2;
 7//1,2,3,16;
 1/18=40,26=3/3(-5);
 2/29=3/2;
 6/7=2,8=2,9=2,10=2,19=2,28=1/1;
 99/9=1/99;
 ----
 test
 ----
 Symbolic Z-matrix:
 Charge =  0 Multiplicity = 1
 C1
 C2                   1    d1
 C3                   2    d2       1     120. 
 C4                   3    d3       2     120.     1     0.       0
 C5                   4    d4       3     120.     2     0.       0
 C6                   5    d5       4     120.     3     0.       0
 F7                   1    d6       2     120.     3     180.     0
 H8                   2    d7       3     120.     4     180.     0
 H9                   3    d8       4     120.     5     180.     0
 H10                  4    d9       5     120.     6     180.     0
 H11                  5    d10      6     120.     1     180.     0
 H12                  6    d11      1     120.     2     180.     0
 O13                  7    d12      1     179.9    3     180.     0
 C14                  13   d13      1     179.9    2     180.     0
 H15                  14   d14      1     120.     2     90.      0
 H16                  14   d15      1     120.     2    -90.      0
 H17                  7    d16      1     100.     2     90.      0
 F18                  17   d17      7     160.     1     0.       0
       Variables:
  d1                    1.3                      
  d2                    1.3                      
  d3                    1.3                      
  d4                    1.3                      
  d5                    1.3                      
  d6                    1.4                      
  d7                    1.                       
  d8                    1.                       
  d9                    1.                       
  d10                   1.                       
  d11                   1.                       
  d12                   2.8                      
  d13                   1.2                      
  d14                   1.                       
  d15                   1.                       
  d16                   2.3                      
  d17                   0.9                      
 

 GradGradGradGradGradGradGradGradGradGradGradGradGradGradGradGradGradGrad
 Berny optimization.
 Initialization pass.
                       ----------------------------
                       !    Initial Parameters    !
                       ! (Angstroms and Degrees)  !
 ----------------------                            ----------------------
 !      Name          Value   Derivative information (Atomic Units)     !
 ------------------------------------------------------------------------
 !       d1          1.3      estimate D2E/DX2                          !
 !       d2          1.3      estimate D2E/DX2                          !
 !       d3          1.3      estimate D2E/DX2                          !
 !       d4          1.3      estimate D2E/DX2                          !
 !       d5          1.3      estimate D2E/DX2                          !
 !       d6          1.4      estimate D2E/DX2                          !
 !       d7          1.0      estimate D2E/DX2                          !
 !       d8          1.0      estimate D2E/DX2                          !
 !       d9          1.0      estimate D2E/DX2                          !
 !       d10         1.0      estimate D2E/DX2                          !
 !       d11         1.0      estimate D2E/DX2                          !
 !       d12         2.8      estimate D2E/DX2                          !
 !       d13         1.2      estimate D2E/DX2                          !
 !       d14         1.0      estimate D2E/DX2                          !
 !       d15         1.0      estimate D2E/DX2                          !
 !       d16         2.3      estimate D2E/DX2                          !
 !       d17         0.9      estimate D2E/DX2                          !
 ------------------------------------------------------------------------
 Trust Radius=3.00D-01 FncErr=1.00D-07 GrdErr=1.00D-06 EigMax=2.50D+02 EigMin=1.00D-04
 Number of steps in this run=     27 maximum allowed number of steps=    100.
 GradGradGradGradGradGradGradGradGradGradGradGradGradGradGradGradGradGrad

 ---------------------------------------------------------------------------------------------------
                            Z-MATRIX (ANGSTROMS AND DEGREES)
   CD    Cent   Atom    N1       Length/X        N2       Alpha/Y        N3        Beta/Z          J
 ---------------------------------------------------------------------------------------------------
      1      1  C 
      2      2  C        1   1.300000(     1)
      3      3  C        2   1.300000(     2)      1  120.000(    18)
      4      4  C        3   1.300000(     3)      2  120.000(    19)      1    0.000(    34)      0
      5      5  C        4   1.300000(     4)      3  120.000(    20)      2    0.000(    35)      0
      6      6  C        5   1.300000(     5)      4  120.000(    21)      3    0.000(    36)      0
      7      7  F        1   1.400000(     6)      2  120.000(    22)      3  180.000(    37)      0
      8      8  H        2   1.000000(     7)      3  120.000(    23)      4  180.000(    38)      0
      9      9  H        3   1.000000(     8)      4  120.000(    24)      5  180.000(    39)      0
     10     10  H        4   1.000000(     9)      5  120.000(    25)      6  180.000(    40)      0
     11     11  H        5   1.000000(    10)      6  120.000(    26)      1  180.000(    41)      0
     12     12  H        6   1.000000(    11)      1  120.000(    27)      2  180.000(    42)      0
     13     13  O        7   2.800000(    12)      1  179.900(    28)      3  180.000(    43)      0
     14     14  C       13   1.200000(    13)      1  179.900(    29)      2  180.000(    44)      0
     15     15  H       14   1.000000(    14)      1  120.000(    30)      2   90.000(    45)      0
     16     16  H       14   1.000000(    15)      1  120.000(    31)      2  -90.000(    46)      0
     17     17  H        7   2.300000(    16)      1  100.000(    32)      2   90.000(    47)      0
     18     18  F       17   0.900000(    17)      7  160.000(    33)      1    0.000(    48)      0
 ---------------------------------------------------------------------------------------------------
                         Z-Matrix orientation:                         
 ---------------------------------------------------------------------
 Center     Atomic      Atomic             Coordinates (Angstroms)
 Number     Number       Type             X           Y           Z
 ---------------------------------------------------------------------
      1          6           0        0.000000    0.000000    0.000000
      2          6           0        0.000000    0.000000    1.300000
      3          6           0        1.125833    0.000000    1.950000
      4          6           0        2.251666    0.000000    1.300000
      5          6           0        2.251666    0.000000   -0.000000
      6          6           0        1.125833    0.000000   -0.650000
      7          9           0       -1.212436   -0.000000   -0.700000
      8          1           0       -0.866025   -0.000000    1.800000
      9          1           0        1.125833   -0.000000    2.950000
     10          1           0        3.117691   -0.000000    1.800000
     11          1           0        3.117691   -0.000000   -0.500000
     12          1           0        1.125833   -0.000000   -1.650000
     13          8           0       -3.634860   -0.000000   -2.104230
     14          6           0       -4.672340   -0.000000   -2.707251
     15          1           0       -5.104965    0.866025   -2.957922
     16          1           0       -5.104965   -0.866025   -2.957922
     17          1           0       -1.558318    2.265058   -0.899695
     18          9           0       -1.422973    3.151385   -0.821554
 ---------------------------------------------------------------------
                    Distance matrix (angstroms):
                    1          2          3          4          5
     1  C    0.000000
     2  C    1.300000   0.000000
     3  C    2.251666   1.300000   0.000000
     4  C    2.600000   2.251666   1.300000   0.000000
     5  C    2.251666   2.600000   2.251666   1.300000   0.000000
     6  C    1.300000   2.251666   2.600000   2.251666   1.300000
     7  F    1.400000   2.338803   3.534119   4.000000   3.534119
     8  H    1.997498   1.000000   1.997498   3.157531   3.600000
     9  H    3.157531   1.997498   1.000000   1.997498   3.157531
    10  H    3.600000   3.157531   1.997498   1.000000   1.997498
    11  H    3.157531   3.600000   3.157531   1.997498   1.000000
    12  H    1.997498   3.157531   3.600000   3.157531   1.997498
    13  O    4.199999   4.980059   6.253077   6.799997   6.251317
    14  C    5.399997   6.155390   7.436988   7.999995   7.434452
    15  H    5.963218   6.703772   7.978755   8.543999   7.976172
    16  H    5.963218   6.703772   7.978755   8.543999   7.976172
    17  H    2.892800   3.521009   4.522822   4.948245   4.522822
    18  F    3.554016   4.056731   4.910107   5.285375   4.910107
                    6          7          8          9         10
     6  C    0.000000
     7  F    2.338803   0.000000
     8  H    3.157531   2.523886   0.000000
     9  H    3.600000   4.334743   2.300000   0.000000
    10  H    3.157531   5.000000   3.983717   2.300000   0.000000
    11  H    1.997498   4.334743   4.600000   3.983717   2.300000
    12  H    1.000000   2.523886   3.983717   4.600000   3.983717
    13  O    4.977849   2.800000   4.786382   6.943301   7.799997
    14  C    6.152324   3.999999   5.899436   8.100821   8.999995
    15  H    6.700697   4.582575   6.430896   8.629970   9.539387
    16  H    6.700697   4.582575   6.430896   8.629970   9.539387
    17  H    3.521009   2.300000   3.591394   5.211076   5.855246
    18  F    4.056731   3.160748   4.136902   5.536448   6.117303
                   11         12         13         14         15
    11  H    0.000000
    12  H    2.300000   0.000000
    13  O    6.940497   4.782313   0.000000
    14  C    8.096700   5.893776   1.200000   0.000000
    15  H    8.625744   6.425224   1.907878   1.000000   0.000000
    16  H    8.625744   6.425224   1.907878   1.000000   1.732051
    17  H    5.211076   3.591394   3.300517   4.253807   4.332700
    18  F    5.536448   4.136902   4.058193   4.903618   4.831563
                   16         17         18
    16  H    0.000000
    17  H    5.159329   0.000000
    18  F    5.853266   0.900000   0.000000
 Stoichiometry    C7H8F2O
 Framework group  C1[X(C7H8F2O)]
 Deg. of freedom    48
 Full point group                 C1      NOp   1
 Largest Abelian subgroup         C1      NOp   1
 Largest concise Abelian subgroup C1      NOp   1
                         Standard orientation:                         
 ---------------------------------------------------------------------
 Center     Atomic      Atomic             Coordinates (Angstroms)
 Number     Number       Type             X           Y           Z
 ---------------------------------------------------------------------
      1          6           0       -0.702485   -0.355097   -0.001481
      2          6           0       -1.352040   -0.307568   -1.126567
      3          6           0       -2.648906   -0.217355   -1.125080
      4          6           0       -3.296216   -0.174671    0.001493
      5          6           0       -2.646661   -0.222201    1.126579
      6          6           0       -1.349796   -0.312414    1.125093
      7          9           0        0.694139   -0.452250   -0.003082
      8          1           0       -0.854109   -0.340401   -1.993162
      9          1           0       -3.148563   -0.180794   -1.990531
     10          1           0       -4.293805   -0.105277    0.002637
     11          1           0       -3.144592   -0.189367    1.993174
     12          1           0       -0.850138   -0.348975    1.990544
     13          8           0        3.487387   -0.646565   -0.001398
     14          6           0        4.684492   -0.729845    0.000721
     15          1           0        5.243386    0.099392    0.002724
     16          1           0        5.123187   -1.628480   -0.000875
     17          1           0        1.249754    1.779627    0.001168
     18          9           0        1.155356    2.674661    0.003188
 ---------------------------------------------------------------------
 Rotational constants (GHZ):           2.0958449           0.4987400           0.4591112
 Standard basis: 6-311++G(d,p) (5D, 7F)
 There are   286 symmetry adapted cartesian basis functions of A   symmetry.
 There are   276 symmetry adapted basis functions of A   symmetry.
   276 basis functions,   432 primitive gaussians,   286 cartesian basis functions
    38 alpha electrons       38 beta electrons
       nuclear repulsion energy       485.5299357125 Hartrees.
 NAtoms=   18 NActive=   18 NUniq=   18 SFac= 1.00D+00 NAtFMM=   60 NAOKFM=F Big=F
 Integral buffers will be    131072 words long.
 Raffenetti 2 integral format.
 Two-electron integral symmetry is turned on.
 One-electron integrals computed using PRISM.
 NBasis=   276 RedAO= T EigKep=  4.19D-06  NBF=   276
 NBsUse=   275 1.00D-06 EigRej=  6.02D-07 NBFU=   275
 ExpMin= 3.60D-02 ExpMax= 1.14D+04 ExpMxC= 1.72D+03 IAcc=3 IRadAn=         5 AccDes= 0.00D+00
 Harris functional with IExCor= 1009 and IRadAn=       5 diagonalized for initial guess.
 HarFok:  IExCor= 1009 AccDes= 0.00D+00 IRadAn=         5 IDoV= 1 UseB2=F ITyADJ=14
 ICtDFT=  3500011 ScaDFX=  1.000000  1.000000  1.000000  1.000000
 FoFCou: FMM=F IPFlag=           0 FMFlag=      100000 FMFlg1=           0
         NFxFlg=           0 DoJE=T BraDBF=F KetDBF=T FulRan=T
         wScrn=  0.000000 ICntrl=       500 IOpCl=  0 I1Cent=   200000004 NGrid=           0
         NMat0=    1 NMatS0=      1 NMatT0=    0 NMatD0=    1 NMtDS0=    0 NMtDT0=    0
 Petite list used in FoFCou.
 Requested convergence on RMS density matrix=1.00D-08 within 128 cycles.
 Requested convergence on MAX density matrix=1.00D-06.
 Requested convergence on             energy=1.00D-06.
 No special actions if energy rises.
 SCF Done:  E(RM062X) =  -546.279587965     A.U. after   14 cycles
            NFock= 14  Conv=0.29D-08     -V/T= 1.9985

 **********************************************************************

            Population analysis using the SCF Density.

 **********************************************************************

 Orbital symmetries:
       Occupied  (A) (A) (A) (A) (A) (A) (A) (A) (A) (A) (A) (A)
                 (A) (A) (A) (A) (A) (A) (A) (A) (A) (A) (A) (A)
                 (A) (A) (A) (A) (A) (A) (A) (A) (A) (A) (A) (A)
                 (A) (A)
       Virtual   (A) (A) (A) (A) (A) (A) (A) (A) (A) (A) (A) (A)
                 (A) (A) (A) (A) (A) (A) (A) (A) (A) (A) (A) (A)
                 (A) (A) (A) (A) (A) (A) (A) (A) (A) (A) (A) (A)
                 (A) (A) (A) (A) (A) (A) (A) (A) (A) (A) (A) (A)
                 (A) (A) (A) (A) (A) (A) (A) (A) (A) (A) (A) (A)
                 (A) (A) (A) (A) (A) (A) (A) (A) (A) (A) (A) (A)
                 (A) (A) (A) (A) (A) (A) (A) (A) (A) (A) (A) (A)
                 (A) (A) (A) (A) (A) (A) (A) (A) (A) (A) (A) (A)
                 (A) (A) (A) (A) (A) (A) (A) (A) (A) (A) (A) (A)
                 (A) (A) (A) (A) (A) (A) (A) (A) (A) (A) (A) (A)
                 (A) (A) (A) (A) (A) (A) (A) (A) (A) (A) (A) (A)
                 (A) (A) (A) (A) (A) (A) (A) (A) (A) (A) (A) (A)
                 (A) (A) (A) (A) (A) (A) (A) (A) (A) (A) (A) (A)
                 (A) (A) (A) (A) (A) (A) (A) (A) (A) (A) (A) (A)
                 (A) (A) (A) (A) (A) (A) (A) (A) (A) (A) (A) (A)
                 (A) (A) (A) (A) (A) (A) (A) (A) (A) (A) (A) (A)
                 (A) (A) (A) (A) (A) (A) (A) (A) (A) (A) (A) (A)
                 (A) (A) (A) (A) (A) (A) (A) (A) (A) (A) (A) (A)
                 (A) (A) (A) (A) (A) (A) (A) (A) (A) (A) (A) (A)
                 (A) (A) (A) (A) (A) (A) (A) (A) (A)
 The electronic state is 1-A.
 Alpha  occ. eigenvalues --  -25.24383 -25.20890 -19.63865 -10.61758 -10.61064
 Alpha  occ. eigenvalues --  -10.52412 -10.52412 -10.52277 -10.52268 -10.51596
 Alpha  occ. eigenvalues --   -1.34860  -1.32716  -1.18939  -1.03123  -0.89387
 Alpha  occ. eigenvalues --   -0.88391  -0.75503  -0.73805  -0.72282  -0.66256
 Alpha  occ. eigenvalues --   -0.62509  -0.60813  -0.58863  -0.58408  -0.55867
 Alpha  occ. eigenvalues --   -0.54014  -0.53270  -0.52667  -0.49472  -0.49371
 Alpha  occ. eigenvalues --   -0.49300  -0.47540  -0.47282  -0.44614  -0.42154
 Alpha  occ. eigenvalues --   -0.34950  -0.33868  -0.32674
 Alpha virt. eigenvalues --   -0.00939  -0.00151   0.00338   0.01278   0.01950
 Alpha virt. eigenvalues --    0.02539   0.02548   0.03374   0.03519   0.03974
 Alpha virt. eigenvalues --    0.05341   0.06849   0.07113   0.07560   0.08238
 Alpha virt. eigenvalues --    0.09250   0.11003   0.11395   0.11477   0.11993
 Alpha virt. eigenvalues --    0.12781   0.13293   0.13294   0.13818   0.14211
 Alpha virt. eigenvalues --    0.14570   0.14777   0.15174   0.16044   0.16487
 Alpha virt. eigenvalues --    0.16955   0.17949   0.18373   0.19511   0.20861
 Alpha virt. eigenvalues --    0.20987   0.21529   0.22348   0.23260   0.23842
 Alpha virt. eigenvalues --    0.25412   0.26366   0.26603   0.29228   0.30306
 Alpha virt. eigenvalues --    0.31299   0.31795   0.32642   0.33638   0.34483
 Alpha virt. eigenvalues --    0.34992   0.35825   0.36510   0.36882   0.38066
 Alpha virt. eigenvalues --    0.39159   0.40734   0.42412   0.42620   0.43733
 Alpha virt. eigenvalues --    0.45085   0.45626   0.46428   0.51186   0.52421
 Alpha virt. eigenvalues --    0.54474   0.54785   0.56916   0.57320   0.58108
 Alpha virt. eigenvalues --    0.58864   0.59159   0.60232   0.61496   0.62884
 Alpha virt. eigenvalues --    0.64324   0.65087   0.65647   0.65923   0.67793
 Alpha virt. eigenvalues --    0.69801   0.70159   0.74292   0.74647   0.75839
 Alpha virt. eigenvalues --    0.75892   0.81190   0.81243   0.82564   0.85267
 Alpha virt. eigenvalues --    0.85530   0.89055   0.89725   0.93911   0.96786
 Alpha virt. eigenvalues --    0.99767   1.01088   1.01765   1.02115   1.04744
 Alpha virt. eigenvalues --    1.05818   1.07533   1.07961   1.10639   1.11561
 Alpha virt. eigenvalues --    1.16019   1.16919   1.19036   1.22572   1.23844
 Alpha virt. eigenvalues --    1.25781   1.27288   1.33365   1.34443   1.34948
 Alpha virt. eigenvalues --    1.37353   1.38413   1.44119   1.48836   1.50121
 Alpha virt. eigenvalues --    1.51733   1.52316   1.53522   1.54246   1.59716
 Alpha virt. eigenvalues --    1.62940   1.63395   1.64538   1.64820   1.67481
 Alpha virt. eigenvalues --    1.67954   1.70323   1.71473   1.73088   1.76323
 Alpha virt. eigenvalues --    1.76377   1.80645   1.81539   1.84425   1.84969
 Alpha virt. eigenvalues --    1.85510   1.89849   1.93956   1.94729   1.96640
 Alpha virt. eigenvalues --    1.98916   2.03980   2.04337   2.05451   2.05689
 Alpha virt. eigenvalues --    2.06349   2.11940   2.15756   2.17216   2.17372
 Alpha virt. eigenvalues --    2.19036   2.19589   2.21677   2.30451   2.35505
 Alpha virt. eigenvalues --    2.40771   2.46253   2.47612   2.50347   2.50988
 Alpha virt. eigenvalues --    2.55509   2.57701   2.63301   2.66303   2.70718
 Alpha virt. eigenvalues --    2.71007   2.74440   2.76374   2.76640   2.77543
 Alpha virt. eigenvalues --    2.78868   2.80669   2.86070   2.86375   2.87477
 Alpha virt. eigenvalues --    2.88401   2.90153   2.96711   2.98214   2.98425
 Alpha virt. eigenvalues --    3.03459   3.07900   3.11622   3.24271   3.27117
 Alpha virt. eigenvalues --    3.34493   3.39946   3.41949   3.55107   3.59779
 Alpha virt. eigenvalues --    3.61652   3.64392   3.75052   3.75355   3.87160
 Alpha virt. eigenvalues --    3.89663   3.91025   3.91115   3.98824   3.99829
 Alpha virt. eigenvalues --    4.05704   4.08607   4.14047   4.17179   4.18527
 Alpha virt. eigenvalues --    4.19340   4.19393   4.26332   4.26347   4.36227
 Alpha virt. eigenvalues --    4.94057   4.95658   4.96064   5.11396   5.23800
 Alpha virt. eigenvalues --    5.81234   6.43531   6.46685   6.51555   6.61970
 Alpha virt. eigenvalues --    6.86775   6.89326  23.72880  24.17046  24.26865
 Alpha virt. eigenvalues --   24.31615  24.54314  24.57378  24.72797  50.06699
 Alpha virt. eigenvalues --   66.93277  66.97222
          Condensed to atoms (all electrons):
               1          2          3          4          5          6
     1  C   12.099407  -1.095867  -1.728150  -0.287453  -1.726761  -1.091534
     2  C   -1.095867  13.545878   1.073452  -0.733940  -0.128228  -6.958788
     3  C   -1.728150   1.073452   6.384916   0.564712  -0.344144  -0.132230
     4  C   -0.287453  -0.733940   0.564712   6.505281   0.564476  -0.727734
     5  C   -1.726761  -0.128228  -0.344144   0.564476   6.384559   1.068922
     6  C   -1.091534  -6.958788  -0.132230  -0.727734   1.068922  13.543195
     7  F    0.475005  -0.256121  -0.034633   0.030401  -0.034786  -0.256171
     8  H   -0.168394   0.661349  -0.048086  -0.006166   0.020755  -0.124690
     9  H    0.012221  -0.091606   0.445356  -0.104440  -0.010360   0.083932
    10  H    0.036190  -0.020806  -0.068291   0.492693  -0.068358  -0.020621
    11  H    0.012248   0.084015  -0.010310  -0.104510   0.445451  -0.091797
    12  H   -0.167987  -0.124044   0.020691  -0.006169  -0.048331   0.660616
    13  O    0.029465  -0.008861   0.000467  -0.000974   0.000501  -0.008702
    14  C   -0.001309  -0.001472  -0.000009   0.000370  -0.000032  -0.001695
    15  H    0.001942  -0.000490  -0.000202   0.000013  -0.000198  -0.000463
    16  H   -0.001558   0.000514   0.000171  -0.000046   0.000167   0.000491
    17  H   -0.033267   0.007553   0.009071  -0.000824   0.009144   0.007917
    18  F    0.149409  -0.037917  -0.027264   0.005531  -0.027275  -0.038231
               7          8          9         10         11         12
     1  C    0.475005  -0.168394   0.012221   0.036190   0.012248  -0.167987
     2  C   -0.256121   0.661349  -0.091606  -0.020806   0.084015  -0.124044
     3  C   -0.034633  -0.048086   0.445356  -0.068291  -0.010310   0.020691
     4  C    0.030401  -0.006166  -0.104440   0.492693  -0.104510  -0.006169
     5  C   -0.034786   0.020755  -0.010360  -0.068358   0.445451  -0.048331
     6  C   -0.256171  -0.124690   0.083932  -0.020621  -0.091797   0.660616
     7  F    9.289715  -0.030038  -0.000729   0.001273  -0.000726  -0.029988
     8  H   -0.030038   0.518730  -0.015531   0.000442   0.003046  -0.000259
     9  H   -0.000729  -0.015531   0.510136  -0.015041   0.000077   0.003044
    10  H    0.001273   0.000442  -0.015041   0.513972  -0.015047   0.000448
    11  H   -0.000726   0.003046   0.000077  -0.015047   0.510149  -0.015541
    12  H   -0.029988  -0.000259   0.003044   0.000448  -0.015541   0.518714
    13  O    0.008400   0.000744   0.000084  -0.000009   0.000084   0.000742
    14  C    0.004377  -0.000326  -0.000007   0.000006  -0.000007  -0.000324
    15  H   -0.000987  -0.000108  -0.000001   0.000002  -0.000001  -0.000109
    16  H   -0.000538   0.000103   0.000001  -0.000003   0.000001   0.000105
    17  H    0.024353  -0.001239   0.000233  -0.000164   0.000233  -0.001239
    18  F   -0.013183   0.000663  -0.000797   0.000219  -0.000796   0.000666
              13         14         15         16         17         18
     1  C    0.029465  -0.001309   0.001942  -0.001558  -0.033267   0.149409
     2  C   -0.008861  -0.001472  -0.000490   0.000514   0.007553  -0.037917
     3  C    0.000467  -0.000009  -0.000202   0.000171   0.009071  -0.027264
     4  C   -0.000974   0.000370   0.000013  -0.000046  -0.000824   0.005531
     5  C    0.000501  -0.000032  -0.000198   0.000167   0.009144  -0.027275
     6  C   -0.008702  -0.001695  -0.000463   0.000491   0.007917  -0.038231
     7  F    0.008400   0.004377  -0.000987  -0.000538   0.024353  -0.013183
     8  H    0.000744  -0.000326  -0.000108   0.000103  -0.001239   0.000663
     9  H    0.000084  -0.000007  -0.000001   0.000001   0.000233  -0.000797
    10  H   -0.000009   0.000006   0.000002  -0.000003  -0.000164   0.000219
    11  H    0.000084  -0.000007  -0.000001   0.000001   0.000233  -0.000796
    12  H    0.000742  -0.000324  -0.000109   0.000105  -0.001239   0.000666
    13  O    8.124547   0.305692  -0.088870  -0.091593   0.003756  -0.002140
    14  C    0.305692   4.836699   0.395357   0.393308   0.002114  -0.000692
    15  H   -0.088870   0.395357   0.757978  -0.172755  -0.000925   0.000562
    16  H   -0.091593   0.393308  -0.172755   0.767565   0.000232  -0.000187
    17  H    0.003756   0.002114  -0.000925   0.000232   0.397301   0.317640
    18  F   -0.002140  -0.000692   0.000562  -0.000187   0.317640   8.929197
 Mulliken charges:
               1
     1  C   -0.513608
     2  C    0.085379
     3  C   -0.105519
     4  C   -0.191222
     5  C   -0.105502
     6  C    0.087583
     7  F   -0.175625
     8  H    0.189006
     9  H    0.183427
    10  H    0.163092
    11  H    0.183429
    12  H    0.188967
    13  O   -0.273333
    14  C    0.067948
    15  H    0.109255
    16  H    0.104021
    17  H    0.258109
    18  F   -0.255406
 Sum of Mulliken charges =  -0.00000
 Mulliken charges with hydrogens summed into heavy atoms:
               1
     1  C   -0.513608
     2  C    0.274385
     3  C    0.077908
     4  C   -0.028129
     5  C    0.077927
     6  C    0.276549
     7  F   -0.175625
    13  O   -0.273333
    14  C    0.281223
    18  F    0.002703
 Electronic spatial extent (au):  <R**2>=           2404.6028
 Charge=             -0.0000 electrons
 Dipole moment (field-independent basis, Debye):
    X=              0.5585    Y=             -2.1636    Z=              0.0019  Tot=              2.2345
 Quadrupole moment (field-independent basis, Debye-Ang):
   XX=            -30.1760   YY=            -67.2649   ZZ=            -51.4507
   XY=             -4.2960   XZ=              0.0134   YZ=             -0.0327
 Traceless Quadrupole moment (field-independent basis, Debye-Ang):
   XX=             19.4545   YY=            -17.6343   ZZ=             -1.8202
   XY=             -4.2960   XZ=              0.0134   YZ=             -0.0327
 Octapole moment (field-independent basis, Debye-Ang**2):
  XXX=            137.7031  YYY=            -12.8461  ZZZ=             -0.0070  XYY=             11.9662
  XXY=            -14.1933  XXZ=              0.0487  XZZ=              2.2244  YZZ=              2.5962
  YYZ=             -0.0266  XYZ=              0.0087
 Hexadecapole moment (field-independent basis, Debye-Ang**3):
 XXXX=          -1582.4109 YYYY=           -429.4863 ZZZZ=           -244.5144 XXXY=            -97.7676
 XXXZ=              0.1789 YYYX=            -34.6290 YYYZ=             -0.0100 ZZZX=             -0.0046
 ZZZY=             -0.0325 XXYY=           -465.0624 XXZZ=           -420.7433 YYZZ=           -109.2559
 XXYZ=             -0.1036 YYXZ=             -0.0482 ZZXY=              3.0523
 N-N= 4.855299357125D+02 E-N=-2.257886420079D+03  KE= 5.471164427911D+02
 Calling FoFJK, ICntrl=      2127 FMM=F ISym2X=0 I1Cent= 0 IOpClX= 0 NMat=1 NMatS=1 NMatT=0.
 ***** Axes restored to original set *****
 -------------------------------------------------------------------
 Center     Atomic                   Forces (Hartrees/Bohr)
 Number     Number              X              Y              Z
 -------------------------------------------------------------------
      1        6          -0.092888033   -0.000273235   -0.053631217
      2        6          -0.052095471   -0.000444300    0.015484590
      3        6           0.002511478    0.000310648    0.036594511
      4        6           0.039154769   -0.000345879    0.022609050
      5        6           0.032950980    0.000312059   -0.016121384
      6        6          -0.012636960   -0.000443471   -0.052856269
      7        9           0.026582540    0.003719323    0.015349300
      8        1          -0.065636073   -0.000041306    0.035428297
      9        1          -0.001559484    0.000067013    0.073873393
     10        1           0.064334581    0.000045964    0.037143477
     11        1           0.063195336    0.000066335   -0.038287685
     12        1          -0.002137630   -0.000042291   -0.074557424
     13        8           0.010009423    0.000605978    0.005752104
     14        6           0.068386496    0.000427362    0.039836175
     15        1          -0.039668797    0.072363401   -0.023066836
     16        1          -0.039496116   -0.072472289   -0.022966055
     17        1          -0.005499891   -0.029861026   -0.003180472
     18        9           0.004492852    0.026005716    0.002596445
 -------------------------------------------------------------------
 Cartesian Forces:  Max     0.092888033 RMS     0.036863854
 -----------------------------------------------------------------------------------------------
                       Internal Coordinate Forces (Hartree/Bohr or radian)
  Cent   Atom   N1       Length/X         N2         Alpha/Y        N3         Beta/Z          J
 -----------------------------------------------------------------------------------------------
      1  C 
      2  C        1   0.037887(     1)
      3  C        2   0.153694(     2)      1   0.165244(    18)
      4  C        3   0.221130(     3)      2   0.416149(    19)      1  -0.000920(    34)     0
      5  C        4   0.183247(     4)      3   0.449879(    20)      2  -0.001230(    35)     0
      6  C        5   0.077926(     5)      4   0.251998(    21)      3  -0.001000(    36)     0
      7  F        1  -0.028643(     6)      2   0.000000(    22)      3   0.000326(    37)     0
      8  H        2   0.074557(     7)      3   0.004037(    23)      4  -0.000068(    38)     0
      9  H        3   0.073873(     8)      4   0.002947(    24)      5   0.000110(    39)     0
     10  H        4   0.074287(     9)      5  -0.000000(    25)      6   0.000075(    40)     0
     11  H        5   0.073873(    10)      6  -0.002949(    26)      1   0.000109(    41)     0
     12  H        6   0.074557(    11)      1  -0.004040(    27)      2  -0.000069(    42)     0
     13  O        7   0.000888(    12)      1   0.000005(    28)      3  -0.000009(    43)     0
     14  C       13   0.012433(    13)      1   0.000104(    29)      2  -0.000001(    44)     0
     15  H       14   0.085612(    14)      1   0.006724(    30)      2   0.000116(    45)     0
     16  H       14   0.085607(    15)      1   0.006294(    31)      2  -0.000115(    46)     0
     17  H        7  -0.003595(    16)      1   0.006882(    32)      2   0.000006(    47)     0
     18  F       17   0.026512(    17)      7  -0.001011(    33)      1  -0.000001(    48)     0
 -----------------------------------------------------------------------------------------------
 Internal  Forces:  Max     0.449879103 RMS     0.114024279

 GradGradGradGradGradGradGradGradGradGradGradGradGradGradGradGradGradGrad
 Berny optimization.
 Search for a local minimum.
 Step number   1 out of a maximum of   27
 All quantities printed in internal units (Hartrees-Bohrs-Radians)
 Second derivative matrix not updated -- first step.
 The second derivative matrix:
                          d1        d2        d3        d4        d5
           d1           0.95300
           d2          -0.05489   0.95300
           d3          -0.33597   0.33597   1.34386
           d4          -0.28107   0.05489   0.33597   0.95300
           d5           0.05489  -0.28107  -0.33597  -0.05489   0.95300
           d6           0.00000   0.00000  -0.00000  -0.00000  -0.00000
           d7          -0.00000  -0.00000  -0.00000   0.00000   0.00000
           d8           0.00000   0.00000   0.00000  -0.00000  -0.00000
           d9          -0.00000  -0.00000  -0.00000   0.00000   0.00000
           d10          0.00000  -0.00000  -0.00000   0.00000  -0.00000
           d11         -0.00000  -0.00000   0.00000  -0.00000   0.00000
           d12          0.00000   0.00000  -0.00000  -0.00000  -0.00000
           d13          0.00000   0.00000  -0.00000  -0.00000  -0.00000
           d14          0.00000   0.00000  -0.00000  -0.00000  -0.00000
           d15         -0.00000  -0.00000  -0.00000   0.00000   0.00000
           d16         -0.00000  -0.00000   0.00000   0.00000   0.00000
           d17         -0.00000  -0.00000   0.00000   0.00000   0.00000
                          d6        d7        d8        d9        d10
           d6           0.45621
           d7          -0.00000   0.47688
           d8          -0.00000   0.00000   0.47688
           d9           0.00000  -0.00000   0.00000   0.47688
           d10          0.00000  -0.00000   0.00000  -0.00000   0.47688
           d11          0.00000   0.00000  -0.00000   0.00000  -0.00000
           d12         -0.00000   0.00000  -0.00000   0.00000   0.00000
           d13         -0.00000   0.00000  -0.00000   0.00000   0.00000
           d14          0.00000  -0.00000  -0.00000   0.00000   0.00000
           d15          0.00000   0.00000   0.00000  -0.00000  -0.00000
           d16         -0.00000  -0.00000   0.00000  -0.00000  -0.00000
           d17          0.00000  -0.00000   0.00000  -0.00000  -0.00000
                          d11       d12       d13       d14       d15
           d11          0.47688
           d12          0.00000   0.02330
           d13          0.00000  -0.00000   1.04823
           d14          0.00000   0.00000   0.00000   0.47688
           d15         -0.00000   0.00000  -0.00000   0.00000   0.47688
           d16         -0.00000   0.00000  -0.00000   0.00000  -0.00000
           d17         -0.00000   0.00000   0.00000   0.00000  -0.00000
                          d16       d17
           d16          0.02721
           d17          0.00000   0.70673
 ITU=  0
     Eigenvalues ---    0.02330   0.02721   0.45621   0.47688   0.47688
     Eigenvalues ---    0.47688   0.47688   0.47688   0.47688   0.47688
     Eigenvalues ---    0.67193   0.67193   0.67193   0.70673   1.04823
     Eigenvalues ---    1.12429   2.01579
 RFO step:  Lambda=-1.63179826D-01 EMin= 2.33007068D-02
 Linear search not attempted -- first point.
 Maximum step size (   0.300) exceeded in Quadratic search.
    -- Step size scaled by   0.669
 Variable       Old X    -DE/DX   Delta X   Delta X   Delta X     New X
                                 (Linear)    (Quad)   (Total)
    d1        2.45664   0.03789   0.00000   0.07620   0.07620   2.53284
    d2        2.45664   0.15369   0.00000   0.08703   0.08703   2.54367
    d3        2.45664   0.22113   0.00000   0.09518   0.09518   2.55183
    d4        2.45664   0.18325   0.00000   0.10091   0.10091   2.55755
    d5        2.45664   0.07793   0.00000   0.09848   0.09848   2.55512
    d6        2.64562  -0.02864   0.00000  -0.03093  -0.03093   2.61469
    d7        1.88973   0.07456   0.00000   0.07791   0.07791   1.96764
    d8        1.88973   0.07387   0.00000   0.07720   0.07720   1.96692
    d9        1.88973   0.07429   0.00000   0.07763   0.07763   1.96735
   d10        1.88973   0.07387   0.00000   0.07719   0.07719   1.96692
   d11        1.88973   0.07456   0.00000   0.07791   0.07791   1.96764
   d12        5.29123   0.00089   0.00000   0.00319   0.00319   5.29442
   d13        2.26767   0.01243   0.00000   0.00686   0.00686   2.27454
   d14        1.88973   0.08561   0.00000   0.08946   0.08946   1.97919
   d15        1.88973   0.08561   0.00000   0.08946   0.08946   1.97918
   d16        4.34637  -0.00359   0.00000  -0.01263  -0.01263   4.33374
   d17        1.70075   0.02651   0.00000   0.02038   0.02038   1.72114
         Item               Value     Threshold  Converged?
 Maximum Force            0.221130     0.000450     NO 
 RMS     Force            0.096256     0.000300     NO 
 Maximum Displacement     0.100908     0.001800     NO 
 RMS     Displacement     0.072761     0.001200     NO 
 Predicted change in Energy=-7.998575D-02
 GradGradGradGradGradGradGradGradGradGradGradGradGradGradGradGradGradGrad

 ---------------------------------------------------------------------------------------------------
                            Z-MATRIX (ANGSTROMS AND DEGREES)
   CD    Cent   Atom    N1       Length/X        N2       Alpha/Y        N3        Beta/Z          J
 ---------------------------------------------------------------------------------------------------
      1      1  C 
      2      2  C        1   1.340323(     1)
      3      3  C        2   1.346054(     2)      1  120.000(    18)
      4      4  C        3   1.350369(     3)      2  120.000(    19)      1    0.000(    34)      0
      5      5  C        4   1.353398(     4)      3  120.000(    20)      2    0.000(    35)      0
      6      6  C        5   1.352111(     5)      4  120.000(    21)      3    0.000(    36)      0
      7      7  F        1   1.383632(     6)      2  120.000(    22)      3  180.000(    37)      0
      8      8  H        2   1.041228(     7)      3  120.000(    23)      4  180.000(    38)      0
      9      9  H        3   1.040850(     8)      4  120.000(    24)      5  180.000(    39)      0
     10     10  H        4   1.041079(     9)      5  120.000(    25)      6  180.000(    40)      0
     11     11  H        5   1.040850(    10)      6  120.000(    26)      1  180.000(    41)      0
     12     12  H        6   1.041228(    11)      1  120.000(    27)      2  180.000(    42)      0
     13     13  O        7   2.801686(    12)      1  179.900(    28)      3  180.000(    43)      0
     14     14  C       13   1.203632(    13)      1  179.900(    29)      2  180.000(    44)      0
     15     15  H       14   1.047342(    14)      1  120.000(    30)      2   90.000(    45)      0
     16     16  H       14   1.047338(    15)      1  120.000(    31)      2  -90.000(    46)      0
     17     17  H        7   2.293318(    16)      1  100.000(    32)      2   90.000(    47)      0
     18     18  F       17   0.910787(    17)      7  160.000(    33)      1    0.000(    48)      0
 ---------------------------------------------------------------------------------------------------
                         Z-Matrix orientation:                         
 ---------------------------------------------------------------------
 Center     Atomic      Atomic             Coordinates (Angstroms)
 Number     Number       Type             X           Y           Z
 ---------------------------------------------------------------------
      1          6           0        0.000000    0.000000    0.000000
      2          6           0        0.000000    0.000000    1.340323
      3          6           0        1.165717    0.000000    2.013350
      4          6           0        2.335171    0.000000    1.338166
      5          6           0        2.335171    0.000000   -0.015232
      6          6           0        1.164209    0.000000   -0.691288
      7          9           0       -1.198261   -0.000000   -0.691816
      8          1           0       -0.901730   -0.000000    1.860937
      9          1           0        1.165717   -0.000000    3.054201
     10          1           0        3.236772   -0.000000    1.858705
     11          1           0        3.236574   -0.000000   -0.535657
     12          1           0        1.151467   -0.000000   -1.732439
     13          8           0       -3.622143   -0.000000   -2.096892
     14          6           0       -4.662761   -0.000000   -2.701742
     15          1           0       -5.115865    0.907024   -2.964284
     16          1           0       -5.115864   -0.907022   -2.964283
     17          1           0       -1.543138    2.258477   -0.890931
     18          9           0       -1.406171    3.155427   -0.811853
 ---------------------------------------------------------------------
                    Distance matrix (angstroms):
                    1          2          3          4          5
     1  C    0.000000
     2  C    1.340323   0.000000
     3  C    2.326473   1.346054   0.000000
     4  C    2.691415   2.335172   1.350369   0.000000
     5  C    2.335221   2.700103   2.341532   1.353398   0.000000
     6  C    1.353980   2.341544   2.704639   2.343040   1.352111
     7  F    1.383632   2.359114   3.592536   4.075042   3.597625
     8  H    2.067899   1.041228   2.073058   3.278844   3.741329
     9  H    3.269104   2.072745   1.040850   2.076632   3.284668
    10  H    3.732490   3.278020   2.076821   1.041079   2.079550
    11  H    3.280600   3.740951   3.284187   2.079360   1.040850
    12  H    2.080197   3.281424   3.745816   3.290861   2.085654
    13  O    4.185317   4.993432   6.310127   6.876716   6.310539
    14  C    5.388948   6.170870   7.496884   8.080342   7.495892
    15  H    5.981785   6.747178   8.065843   8.651689   8.064586
    16  H    5.981783   6.747176   8.065841   8.651687   8.064584
    17  H    2.876761   3.529942   4.568749   5.011075   4.572620
    18  F    3.548681   4.070122   4.955109   5.345740   4.958726
                    6          7          8          9         10
     6  C    0.000000
     7  F    2.362469   0.000000
     8  H    3.283589   2.569918   0.000000
     9  H    3.745489   4.429563   2.387094   0.000000
    10  H    3.286029   5.116119   4.138503   2.391334   0.000000
    11  H    2.078201   4.437583   4.782178   4.144337   2.394363
    12  H    1.041228   2.569847   4.138595   4.786660   4.152687
    13  O    4.988475   2.801686   4.802609   7.032593   7.917794
    14  C    6.164050   4.005318   5.912986   8.191584   9.121421
    15  H    6.740069   4.618921   6.470270   8.746607   9.687645
    16  H    6.740067   4.618919   6.470268   8.746605   9.687644
    17  H    3.531332   2.293318   3.617306   5.291756   5.958923
    18  F    4.071622   3.164546   4.165932   5.614062   6.216552
                   11         12         13         14         15
    11  H    0.000000
    12  H    2.404154   0.000000
    13  O    7.034163   4.787503   0.000000
    14  C    8.190935   5.894472   1.203632   0.000000
    15  H    8.745522   6.451325   1.950966   1.047342   0.000000
    16  H    8.745520   6.451323   1.950963   1.047338   1.814046
    17  H    5.298357   3.615211   3.298078   4.255797   4.346216
    18  F    5.620327   4.164818   4.064305   4.912615   4.842531
                   16         17         18
    16  H    0.000000
    17  H    5.204185   0.000000
    18  F    5.907476   0.910787   0.000000
 Stoichiometry    C7H8F2O
 Framework group  C1[X(C7H8F2O)]
 Deg. of freedom    48
 Full point group                 C1      NOp   1
 Largest Abelian subgroup         C1      NOp   1
 Largest concise Abelian subgroup C1      NOp   1
                         Standard orientation:                         
 ---------------------------------------------------------------------
 Center     Atomic      Atomic             Coordinates (Angstroms)
 Number     Number       Type             X           Y           Z
 ---------------------------------------------------------------------
      1          6           0       -0.671973   -0.357892   -0.007963
      2          6           0       -1.340060   -0.305677   -1.168739
      3          6           0       -2.682915   -0.212914   -1.168813
      4          6           0       -3.356978   -0.172461    0.000588
      5          6           0       -2.682374   -0.225185    1.172687
      6          6           0       -1.333477   -0.318365    1.172761
      7          9           0        0.708370   -0.453245   -0.007887
      8          1           0       -0.820310   -0.336870   -2.070427
      9          1           0       -3.201729   -0.172366   -2.070232
     10          1           0       -4.395582   -0.100715    0.000531
     11          1           0       -3.201935   -0.194004    2.074048
     12          1           0       -0.803502   -0.359653    2.068071
     13          8           0        3.503389   -0.646347   -0.002842
     14          6           0        4.704153   -0.729312    0.000731
     15          1           0        5.289084    0.139451    0.006304
     16          1           0        5.164070   -1.670258   -0.003152
     17          1           0        1.261293    1.772389    0.003907
     18          9           0        1.165324    2.678093    0.008573
 ---------------------------------------------------------------------
 Rotational constants (GHZ):           2.0386742           0.4884417           0.4526817
 Standard basis: 6-311++G(d,p) (5D, 7F)
 There are   286 symmetry adapted cartesian basis functions of A   symmetry.
 There are   276 symmetry adapted basis functions of A   symmetry.
   276 basis functions,   432 primitive gaussians,   286 cartesian basis functions
    38 alpha electrons       38 beta electrons
       nuclear repulsion energy       476.0999755757 Hartrees.
 NAtoms=   18 NActive=   18 NUniq=   18 SFac= 1.00D+00 NAtFMM=   60 NAOKFM=F Big=F
 Integral buffers will be    131072 words long.
 Raffenetti 2 integral format.
 Two-electron integral symmetry is turned on.
 One-electron integrals computed using PRISM.
 NBasis=   276 RedAO= T EigKep=  5.75D-06  NBF=   276
 NBsUse=   275 1.00D-06 EigRej=  8.34D-07 NBFU=   275
 Initial guess from the checkpoint file:  "model_H1.chk"
 B after Tr=     0.000000   -0.000000   -0.000000
         Rot=    0.999999   -0.001232   -0.000059    0.000019 Ang=  -0.14 deg.
 ExpMin= 3.60D-02 ExpMax= 1.14D+04 ExpMxC= 1.72D+03 IAcc=3 IRadAn=         5 AccDes= 0.00D+00
 Harris functional with IExCor= 1009 and IRadAn=       5 diagonalized for initial guess.
 HarFok:  IExCor= 1009 AccDes= 0.00D+00 IRadAn=         5 IDoV= 1 UseB2=F ITyADJ=14
 ICtDFT=  3500011 ScaDFX=  1.000000  1.000000  1.000000  1.000000
 FoFCou: FMM=F IPFlag=           0 FMFlag=      100000 FMFlg1=           0
         NFxFlg=           0 DoJE=T BraDBF=F KetDBF=T FulRan=T
         wScrn=  0.000000 ICntrl=       500 IOpCl=  0 I1Cent=   200000004 NGrid=           0
         NMat0=    1 NMatS0=      1 NMatT0=    0 NMatD0=    1 NMtDS0=    0 NMtDT0=    0
 Petite list used in FoFCou.
 Requested convergence on RMS density matrix=1.00D-08 within 128 cycles.
 Requested convergence on MAX density matrix=1.00D-06.
 Requested convergence on             energy=1.00D-06.
 No special actions if energy rises.
 SCF Done:  E(RM062X) =  -546.355636113     A.U. after   13 cycles
            NFock= 13  Conv=0.62D-08     -V/T= 2.0013
 Calling FoFJK, ICntrl=      2127 FMM=F ISym2X=0 I1Cent= 0 IOpClX= 0 NMat=1 NMatS=1 NMatT=0.
 ***** Axes restored to original set *****
 -------------------------------------------------------------------
 Center     Atomic                   Forces (Hartrees/Bohr)
 Number     Number              X              Y              Z
 -------------------------------------------------------------------
      1        6          -0.032479725   -0.000466290   -0.033301884
      2        6          -0.026865283   -0.000367954    0.009837574
      3        6           0.007680932    0.000268328    0.009310576
      4        6           0.012276533   -0.000306173    0.004998374
      5        6           0.005312015    0.000268731   -0.001208162
      6        6          -0.008973568   -0.000364386   -0.015303127
      7        9           0.020887109    0.003577888    0.012859268
      8        1          -0.030196921   -0.000044582    0.014901477
      9        1          -0.001178410    0.000071948    0.033266552
     10        1           0.028960327    0.000046113    0.016554486
     11        1           0.028214674    0.000068068   -0.017705872
     12        1          -0.001940249   -0.000048970   -0.033223794
     13        8          -0.000670065    0.000594122   -0.000456653
     14        6           0.040961054    0.000440874    0.023953235
     15        1          -0.020569070    0.032540337   -0.011994021
     16        1          -0.020394216   -0.032657292   -0.011892780
     17        1          -0.003237992   -0.015512524   -0.001880925
     18        9           0.002212853    0.011891763    0.001285676
 -------------------------------------------------------------------
 Cartesian Forces:  Max     0.040961054 RMS     0.017073016
 -----------------------------------------------------------------------------------------------
                       Internal Coordinate Forces (Hartree/Bohr or radian)
  Cent   Atom   N1       Length/X         N2         Alpha/Y        N3         Beta/Z          J
 -----------------------------------------------------------------------------------------------
      1  C 
      2  C        1   0.020414(     1)
      3  C        2   0.058243(     2)      1   0.033954(    18)
      4  C        3   0.078225(     3)      2   0.127876(    19)      1  -0.000728(    34)     0
      5  C        4   0.068455(     4)      3   0.148511(    20)      2  -0.001055(    35)     0
      6  C        5   0.034744(     5)      4   0.092500(    21)      3  -0.000879(    36)     0
      7  F        1  -0.022556(     6)      2  -0.001796(    22)      3   0.000353(    37)     0
      8  H        2   0.033602(     7)      3   0.004316(    23)      4  -0.000076(    38)     0
      9  H        3   0.033267(     8)      4   0.002318(    24)      5   0.000123(    39)     0
     10  H        4   0.033358(     9)      5  -0.000282(    25)      6   0.000079(    40)     0
     11  H        5   0.033288(    10)      6  -0.002412(    26)      1   0.000116(    41)     0
     12  H        6   0.033245(    11)      1  -0.003017(    27)      2  -0.000083(    42)     0
     13  O        7   0.000777(    12)      1   0.000000(    28)      3  -0.000009(    43)     0
     14  C       13  -0.000031(    13)      1   0.000104(    29)      2  -0.000001(    44)     0
     15  H       14   0.040086(    14)      1   0.008610(    30)      2   0.000112(    45)     0
     16  H       14   0.040086(    15)      1   0.008148(    31)      2  -0.000112(    46)     0
     17  H        7  -0.003360(    16)      1   0.007000(    32)      2   0.000001(    47)     0
     18  F       17   0.012156(    17)      7  -0.000784(    33)      1  -0.000004(    48)     0
 -----------------------------------------------------------------------------------------------
 Internal  Forces:  Max     0.148510869 RMS     0.039162346

 GradGradGradGradGradGradGradGradGradGradGradGradGradGradGradGradGradGrad
 Berny optimization.
 Search for a local minimum.
 Step number   2 out of a maximum of   27
 All quantities printed in internal units (Hartrees-Bohrs-Radians)
 Update second derivatives using D2CorN and points    1    2
 DE= -7.60D-02 DEPred=-8.00D-02 R= 9.51D-01
 TightC=F SS=  1.41D+00  RLast= 3.00D-01 DXNew= 5.0454D-01 9.0000D-01
 Trust test= 9.51D-01 RLast= 3.00D-01 DXMaxT set to 5.05D-01
 The second derivative matrix:
                          d1        d2        d3        d4        d5
           d1           0.95687
           d2          -0.04978   0.95963
           d3          -0.32909   0.34468   1.35500
           d4          -0.27483   0.06294   0.34647   0.96275
           d5           0.06041  -0.27387  -0.32643  -0.04614   0.96081
           d6           0.00261   0.00270   0.00243   0.00300   0.00316
           d7           0.00359   0.00480   0.00657   0.00589   0.00517
           d8           0.00356   0.00477   0.00652   0.00586   0.00513
           d9           0.00362   0.00485   0.00661   0.00594   0.00521
           d10          0.00356   0.00476   0.00651   0.00584   0.00512
           d11          0.00374   0.00498   0.00676   0.00609   0.00536
           d12          0.00010   0.00014   0.00021   0.00017   0.00015
           d13          0.00240   0.00281   0.00319   0.00329   0.00315
           d14          0.00348   0.00479   0.00675   0.00593   0.00511
           d15          0.00348   0.00479   0.00675   0.00592   0.00511
           d16         -0.00027  -0.00043  -0.00068  -0.00055  -0.00044
           d17          0.00050   0.00075   0.00117   0.00096   0.00078
                          d6        d7        d8        d9        d10
           d6           0.45345
           d7           0.00282   0.48017
           d8           0.00279   0.00327   0.48014
           d9           0.00279   0.00333   0.00331   0.48026
           d10          0.00279   0.00326   0.00324   0.00330   0.48012
           d11          0.00276   0.00344   0.00343   0.00349   0.00342
           d12          0.00014   0.00008   0.00008   0.00009   0.00008
           d13         -0.00060   0.00243   0.00240   0.00242   0.00240
           d14          0.00350   0.00313   0.00311   0.00318   0.00310
           d15          0.00350   0.00313   0.00311   0.00318   0.00310
           d16         -0.00058  -0.00022  -0.00022  -0.00023  -0.00022
           d17          0.00092   0.00041   0.00041   0.00042   0.00041
                          d11       d12       d13       d14       d15
           d11          0.48048
           d12          0.00009   0.02330
           d13          0.00244   0.00009   1.04863
           d14          0.00331   0.00007   0.00273   0.47973
           d15          0.00330   0.00007   0.00273   0.00284   0.47973
           d16         -0.00024  -0.00000  -0.00037  -0.00015  -0.00015
           d17          0.00045   0.00000   0.00059   0.00030   0.00030
                          d16       d17
           d16          0.02719
           d17          0.00002   0.70672
 ITU=  1  0
     Eigenvalues ---    0.02330   0.02719   0.45207   0.47671   0.47688
     Eigenvalues ---    0.47688   0.47688   0.47688   0.47688   0.49677
     Eigenvalues ---    0.67187   0.67193   0.70519   0.70873   1.04882
     Eigenvalues ---    1.12479   2.02317
 RFO step:  Lambda=-4.32403336D-03 EMin= 2.33017254D-02
 Quartic linear search produced a step of  0.91209.
 Variable       Old X    -DE/DX   Delta X   Delta X   Delta X     New X
                                 (Linear)    (Quad)   (Total)
    d1        2.53284   0.02041   0.06950   0.00318   0.07269   2.60553
    d2        2.54367   0.05824   0.07938  -0.00916   0.07022   2.61389
    d3        2.55183   0.07823   0.08682  -0.02306   0.06376   2.61559
    d4        2.55755   0.06845   0.09204  -0.01392   0.07812   2.63567
    d5        2.55512   0.03474   0.08982  -0.00236   0.08746   2.64258
    d6        2.61469  -0.02256  -0.02821  -0.04732  -0.07553   2.53915
    d7        1.96764   0.03360   0.07106   0.01482   0.08588   2.05351
    d8        1.96692   0.03327   0.07041   0.01457   0.08498   2.05190
    d9        1.96735   0.03336   0.07080   0.01426   0.08507   2.05242
   d10        1.96692   0.03329   0.07041   0.01466   0.08506   2.05199
   d11        1.96764   0.03325   0.07106   0.01336   0.08442   2.05206
   d12        5.29442   0.00078   0.00291   0.04080   0.04370   5.33812
   d13        2.27454  -0.00003   0.00626  -0.01015  -0.00389   2.27065
   d14        1.97919   0.04009   0.08160   0.02313   0.10473   2.08392
   d15        1.97918   0.04009   0.08159   0.02314   0.10474   2.08392
   d16        4.33374  -0.00336  -0.01152  -0.15684  -0.16836   4.16539
   d17        1.72114   0.01216   0.01859   0.00276   0.02135   1.74249
         Item               Value     Threshold  Converged?
 Maximum Force            0.078225     0.000450     NO 
 RMS     Force            0.038551     0.000300     NO 
 Maximum Displacement     0.168355     0.001800     NO 
 RMS     Displacement     0.084920     0.001200     NO 
 Predicted change in Energy=-1.556315D-02
 GradGradGradGradGradGradGradGradGradGradGradGradGradGradGradGradGradGrad

 ---------------------------------------------------------------------------------------------------
                            Z-MATRIX (ANGSTROMS AND DEGREES)
   CD    Cent   Atom    N1       Length/X        N2       Alpha/Y        N3        Beta/Z          J
 ---------------------------------------------------------------------------------------------------
      1      1  C 
      2      2  C        1   1.378787(     1)
      3      3  C        2   1.383213(     2)      1  120.000(    18)
      4      4  C        3   1.384110(     3)      2  120.000(    19)      1    0.000(    34)      0
      5      5  C        4   1.394738(     4)      3  120.000(    20)      2    0.000(    35)      0
      6      6  C        5   1.398392(     5)      4  120.000(    21)      3    0.000(    36)      0
      7      7  F        1   1.343661(     6)      2  120.000(    22)      3  180.000(    37)      0
      8      8  H        2   1.086673(     7)      3  120.000(    23)      4  180.000(    38)      0
      9      9  H        3   1.085819(     8)      4  120.000(    24)      5  180.000(    39)      0
     10     10  H        4   1.086094(     9)      5  120.000(    25)      6  180.000(    40)      0
     11     11  H        5   1.085864(    10)      6  120.000(    26)      1  180.000(    41)      0
     12     12  H        6   1.085903(    11)      1  120.000(    27)      2  180.000(    42)      0
     13     13  O        7   2.824813(    12)      1  179.900(    28)      3  180.000(    43)      0
     14     14  C       13   1.201574(    13)      1  179.900(    29)      2  180.000(    44)      0
     15     15  H       14   1.102763(    14)      1  120.000(    30)      2   90.000(    45)      0
     16     16  H       14   1.102762(    15)      1  120.000(    31)      2  -90.000(    46)      0
     17     17  H        7   2.204228(    16)      1  100.000(    32)      2   90.000(    47)      0
     18     18  F       17   0.922084(    17)      7  160.000(    33)      1    0.000(    48)      0
 ---------------------------------------------------------------------------------------------------
                         Z-Matrix orientation:                         
 ---------------------------------------------------------------------
 Center     Atomic      Atomic             Coordinates (Angstroms)
 Number     Number       Type             X           Y           Z
 ---------------------------------------------------------------------
      1          6           0        0.000000    0.000000    0.000000
      2          6           0        0.000000    0.000000    1.378787
      3          6           0        1.197898    0.000000    2.070394
      4          6           0        2.396573    0.000000    1.378338
      5          6           0        2.396573    0.000000   -0.016399
      6          6           0        1.185530    0.000000   -0.715595
      7          9           0       -1.163645   -0.000000   -0.671831
      8          1           0       -0.941086   -0.000000    1.922123
      9          1           0        1.197898   -0.000000    3.156212
     10          1           0        3.337158   -0.000000    1.921385
     11          1           0        3.336958   -0.000000   -0.559331
     12          1           0        1.164389   -0.000000   -1.801292
     13          8           0       -3.607535   -0.000000   -2.088504
     14          6           0       -4.646365   -0.000000   -2.692336
     15          1           0       -5.123441    0.955021   -2.968777
     16          1           0       -5.123441   -0.955020   -2.968777
     17          1           0       -1.495125    2.170741   -0.863211
     18          9           0       -1.356458    3.078816   -0.783152
 ---------------------------------------------------------------------
                    Distance matrix (angstroms):
                    1          2          3          4          5
     1  C    0.000000
     2  C    1.378787   0.000000
     3  C    2.391963   1.383213   0.000000
     4  C    2.764666   2.396573   1.384110   0.000000
     5  C    2.396629   2.773104   2.406559   1.394738   0.000000
     6  C    1.384759   2.406640   2.786016   2.418922   1.398392
     7  F    1.343661   2.357775   3.618933   4.108326   3.620047
     8  H    2.140140   1.086673   2.144117   3.381666   3.859771
     9  H    3.375890   2.143409   1.085819   2.144215   3.391502
    10  H    3.850759   3.380981   2.144443   1.086094   2.153999
    11  H    3.383510   3.858963   3.389843   2.153808   1.085864
    12  H    2.144867   3.386548   3.871831   3.410033   2.168898
    13  O    4.168472   5.003641   6.355204   6.933131   6.351609
    14  C    5.370045   6.177601   7.539165   8.134701   7.534163
    15  H    5.997946   6.786975   8.140310   8.738426   8.135061
    16  H    5.997946   6.786975   8.140309   8.738426   8.135060
    17  H    2.773562   3.460356   4.535473   4.988183   4.535914
    18  F    3.454333   3.999133   4.913915   5.313792   4.914495
                    6          7          8          9         10
     6  C    0.000000
     7  F    2.349582   0.000000
     8  H    3.388223   2.603484   0.000000
     9  H    3.871827   4.497866   2.469459   0.000000
    10  H    3.403405   5.194419   4.278244   2.470067   0.000000
    11  H    2.157096   4.502009   4.945632   4.287289   2.480717
    12  H    1.085903   2.587552   4.277482   4.957618   4.310365
    13  O    4.985815   2.824813   4.816128   7.113315   8.019225
    14  C    6.157800   4.026386   5.917966   8.268067   9.220795
    15  H    6.766980   4.676325   6.505772   8.853637   9.818732
    16  H    6.766979   4.676325   6.505772   8.853637   9.818731
    17  H    3.452508   2.204228   3.574515   5.302853   5.984734
    18  F    3.993166   3.086856   4.119485   5.614484   6.230863
                   11         12         13         14         15
    11  H    0.000000
    12  H    2.502503   0.000000
    13  O    7.110862   4.780560   0.000000
    14  C    8.263363   5.878676   1.201574   0.000000
    15  H    8.848495   6.466212   1.996226   1.102763   0.000000
    16  H    8.848494   6.466212   1.996225   1.102762   1.910041
    17  H    5.305986   3.558810   3.267375   4.241242   4.367616
    18  F    5.617594   4.107358   4.031179   4.893627   4.845372
                   16         17         18
    16  H    0.000000
    17  H    5.231489   0.000000
    18  F    5.936241   0.922084   0.000000
 Stoichiometry    C7H8F2O
 Framework group  C1[X(C7H8F2O)]
 Deg. of freedom    48
 Full point group                 C1      NOp   1
 Largest Abelian subgroup         C1      NOp   1
 Largest concise Abelian subgroup C1      NOp   1
                         Standard orientation:                         
 ---------------------------------------------------------------------
 Center     Atomic      Atomic             Coordinates (Angstroms)
 Number     Number       Type             X           Y           Z
 ---------------------------------------------------------------------
      1          6           0       -0.634815   -0.353006   -0.007186
      2          6           0       -1.323113   -0.300996   -1.200750
      3          6           0       -2.703460   -0.212001   -1.199795
      4          6           0       -3.393747   -0.175160   -0.000667
      5          6           0       -2.697487   -0.227772    1.206705
      6          6           0       -1.301993   -0.317743    1.205739
      7          9           0        0.706062   -0.439456   -0.008114
      8          1           0       -0.781165   -0.329921   -2.142192
      9          1           0       -3.245507   -0.171042   -2.139747
     10          1           0       -4.477591   -0.105281    0.000083
     11          1           0       -3.239031   -0.198869    2.147446
     12          1           0       -0.741740   -0.359808    2.135003
     13          8           0        3.525018   -0.621234   -0.005135
     14          6           0        4.724098   -0.698565   -0.002447
     15          1           0        5.335785    0.218977    0.004133
     16          1           0        5.212888   -1.687067   -0.008053
     17          1           0        1.227699    1.702115    0.005470
     18          9           0        1.126340    2.618593    0.011374
 ---------------------------------------------------------------------
 Rotational constants (GHZ):           2.0600534           0.4823750           0.4524223
 Standard basis: 6-311++G(d,p) (5D, 7F)
 There are   286 symmetry adapted cartesian basis functions of A   symmetry.
 There are   276 symmetry adapted basis functions of A   symmetry.
   276 basis functions,   432 primitive gaussians,   286 cartesian basis functions
    38 alpha electrons       38 beta electrons
       nuclear repulsion energy       471.1493541934 Hartrees.
 NAtoms=   18 NActive=   18 NUniq=   18 SFac= 1.00D+00 NAtFMM=   60 NAOKFM=F Big=F
 Integral buffers will be    131072 words long.
 Raffenetti 2 integral format.
 Two-electron integral symmetry is turned on.
 One-electron integrals computed using PRISM.
 NBasis=   276 RedAO= T EigKep=  1.04D-06  NBF=   276
 NBsUse=   276 1.00D-06 EigRej= -1.00D+00 NBFU=   276
 Initial guess from the checkpoint file:  "model_H1.chk"
 B after Tr=    -0.000000   -0.000000   -0.000000
         Rot=    0.999997   -0.000677   -0.000342   -0.002219 Ang=  -0.27 deg.
 ExpMin= 3.60D-02 ExpMax= 1.14D+04 ExpMxC= 1.72D+03 IAcc=3 IRadAn=         5 AccDes= 0.00D+00
 Harris functional with IExCor= 1009 and IRadAn=       5 diagonalized for initial guess.
 HarFok:  IExCor= 1009 AccDes= 0.00D+00 IRadAn=         5 IDoV= 1 UseB2=F ITyADJ=14
 ICtDFT=  3500011 ScaDFX=  1.000000  1.000000  1.000000  1.000000
 FoFCou: FMM=F IPFlag=           0 FMFlag=      100000 FMFlg1=           0
         NFxFlg=           0 DoJE=T BraDBF=F KetDBF=T FulRan=T
         wScrn=  0.000000 ICntrl=       500 IOpCl=  0 I1Cent=   200000004 NGrid=           0
         NMat0=    1 NMatS0=      1 NMatT0=    0 NMatD0=    1 NMtDS0=    0 NMtDT0=    0
 Petite list used in FoFCou.
 Requested convergence on RMS density matrix=1.00D-08 within 128 cycles.
 Requested convergence on MAX density matrix=1.00D-06.
 Requested convergence on             energy=1.00D-06.
 No special actions if energy rises.
 SCF Done:  E(RM062X) =  -546.376783774     A.U. after   13 cycles
            NFock= 13  Conv=0.56D-08     -V/T= 2.0033
 Calling FoFJK, ICntrl=      2127 FMM=F ISym2X=0 I1Cent= 0 IOpClX= 0 NMat=1 NMatS=1 NMatT=0.
 ***** Axes restored to original set *****
 -------------------------------------------------------------------
 Center     Atomic                   Forces (Hartrees/Bohr)
 Number     Number              X              Y              Z
 -------------------------------------------------------------------
      1        6           0.013103627   -0.000832513   -0.000160983
      2        6          -0.016020564   -0.000358420    0.007553622
      3        6           0.003058212    0.000252094    0.003523242
      4        6           0.008694234   -0.000288659   -0.004020848
      5        6          -0.005353440    0.000249049    0.000861357
      6        6           0.006110698   -0.000347439   -0.002914894
      7        9          -0.002598197    0.003550856    0.000412975
      8        1           0.000607127   -0.000017103   -0.003098641
      9        1          -0.001087631    0.000070068   -0.002040482
     10        1          -0.001564208    0.000042542   -0.001409698
     11        1          -0.002401930    0.000066196    0.000180616
     12        1          -0.000933571   -0.000022518    0.002049836
     13        8          -0.003629087    0.000498139   -0.002183635
     14        6           0.011280216    0.000478476    0.006752802
     15        1          -0.004085216   -0.002409683   -0.002437829
     16        1          -0.003938149    0.002288795   -0.002352389
     17        1          -0.001358302   -0.001712212   -0.000784533
     18        9           0.000116180   -0.001507667    0.000069483
 -------------------------------------------------------------------
 Cartesian Forces:  Max     0.016020564 RMS     0.004258302
 -----------------------------------------------------------------------------------------------
                       Internal Coordinate Forces (Hartree/Bohr or radian)
  Cent   Atom   N1       Length/X         N2         Alpha/Y        N3         Beta/Z          J
 -----------------------------------------------------------------------------------------------
      1  C 
      2  C        1   0.000031(     1)
      3  C        2   0.003095(     2)      1  -0.019933(    18)
      4  C        3   0.006554(     3)      2  -0.006796(    19)      1  -0.000665(    34)     0
      5  C        4   0.000477(     4)      3  -0.001084(    20)      2  -0.000938(    35)     0
      6  C        5  -0.003383(     5)      4   0.007651(    21)      3  -0.000806(    36)     0
      7  F        1   0.003910(     6)      2  -0.004183(    22)      3   0.000363(    37)     0
      8  H        2  -0.002075(     7)      3   0.004887(    23)      4  -0.000030(    38)     0
      9  H        3  -0.002040(     8)      4   0.002232(    24)      5   0.000125(    39)     0
     10  H        4  -0.002059(     9)      5  -0.000900(    25)      6   0.000076(    40)     0
     11  H        5  -0.002170(    10)      6  -0.002143(    26)      1   0.000118(    41)     0
     12  H        6  -0.002031(    11)      1  -0.001997(    27)      2  -0.000040(    42)     0
     13  O        7   0.000433(    12)      1  -0.000018(    28)      3  -0.000008(    43)     0
     14  C       13  -0.003802(    13)      1   0.000108(    29)      2  -0.000001(    44)     0
     15  H       14   0.000292(    14)      1   0.011096(    30)      2   0.000110(    45)     0
     16  H       14   0.000311(    15)      1   0.010663(    31)      2  -0.000110(    46)     0
     17  H        7  -0.002922(    16)      1   0.007520(    32)      2  -0.000011(    47)     0
     18  F       17  -0.001461(    17)      7  -0.000688(    33)      1  -0.000001(    48)     0
 -----------------------------------------------------------------------------------------------
 Internal  Forces:  Max     0.019933111 RMS     0.004522021

 GradGradGradGradGradGradGradGradGradGradGradGradGradGradGradGradGradGrad
 Berny optimization.
 Search for a local minimum.
 Step number   3 out of a maximum of   27
 All quantities printed in internal units (Hartrees-Bohrs-Radians)
 Update second derivatives using D2CorN and points    2    3
 DE= -2.11D-02 DEPred=-1.56D-02 R= 1.36D+00
 TightC=F SS=  1.41D+00  RLast= 3.50D-01 DXNew= 8.4853D-01 1.0504D+00
 Trust test= 1.36D+00 RLast= 3.50D-01 DXMaxT set to 8.49D-01
 The second derivative matrix:
                          d1        d2        d3        d4        d5
           d1           0.95057
           d2          -0.05713   0.95133
           d3          -0.33710   0.33584   1.34580
           d4          -0.28218   0.05449   0.33735   0.95423
           d5           0.05373  -0.28184  -0.33529  -0.05402   0.95383
           d6           0.00728   0.00851   0.00911   0.00862   0.00785
           d7          -0.00283  -0.00288  -0.00200  -0.00169  -0.00150
           d8          -0.00279  -0.00283  -0.00196  -0.00165  -0.00147
           d9          -0.00274  -0.00277  -0.00188  -0.00157  -0.00139
           d10         -0.00277  -0.00282  -0.00194  -0.00163  -0.00144
           d11         -0.00258  -0.00259  -0.00167  -0.00137  -0.00121
           d12         -0.00203  -0.00267  -0.00315  -0.00245  -0.00187
           d13          0.00406   0.00448   0.00477   0.00510   0.00510
           d14         -0.00514  -0.00535  -0.00439  -0.00418  -0.00398
           d15         -0.00515  -0.00536  -0.00440  -0.00419  -0.00399
           d16          0.00832   0.01079   0.01261   0.01003   0.00784
           d17         -0.00101  -0.00107  -0.00088  -0.00083  -0.00076
                          d6        d7        d8        d9        d10
           d6           0.45056
           d7           0.00727   0.47380
           d8           0.00719  -0.00304   0.47388
           d9           0.00720  -0.00299  -0.00294   0.47400
           d10          0.00716  -0.00301  -0.00297  -0.00291   0.47394
           d11          0.00714  -0.00284  -0.00280  -0.00274  -0.00277
           d12          0.00121  -0.00181  -0.00179  -0.00179  -0.00177
           d13         -0.00222   0.00433   0.00429   0.00431   0.00429
           d14          0.00975  -0.00559  -0.00552  -0.00546  -0.00548
           d15          0.00975  -0.00559  -0.00552  -0.00547  -0.00549
           d16         -0.00516   0.00757   0.00750   0.00749   0.00742
           d17          0.00192  -0.00106  -0.00105  -0.00104  -0.00104
                          d11       d12       d13       d14       d15
           d11          0.47429
           d12         -0.00178   0.02303
           d13          0.00431   0.00100   1.04847
           d14         -0.00528  -0.00272   0.00509   0.46796
           d15         -0.00529  -0.00272   0.00509  -0.00894   0.46793
           d16          0.00744   0.00131  -0.00388   0.01119   0.01121
           d17         -0.00100  -0.00041   0.00106  -0.00173  -0.00173
                          d16       d17
           d16          0.02116
           d17          0.00173   0.70638
 ITU=  1  1  0
     Eigenvalues ---    0.01832   0.02363   0.42427   0.46805   0.47688
     Eigenvalues ---    0.47688   0.47688   0.47688   0.47688   0.47849
     Eigenvalues ---    0.67103   0.67194   0.67279   0.70650   1.04895
     Eigenvalues ---    1.12487   2.01791
 RFO step:  Lambda=-5.47362725D-04 EMin= 1.83185667D-02
 Quartic linear search produced a step of -0.00608.
 Variable       Old X    -DE/DX   Delta X   Delta X   Delta X     New X
                                 (Linear)    (Quad)   (Total)
    d1        2.60553   0.00003  -0.00044   0.00440   0.00396   2.60949
    d2        2.61389   0.00309  -0.00043   0.00343   0.00300   2.61690
    d3        2.61559   0.00655  -0.00039   0.00681   0.00642   2.62201
    d4        2.63567   0.00048  -0.00047   0.00127   0.00079   2.63646
    d5        2.64258  -0.00338  -0.00053   0.00115   0.00062   2.64320
    d6        2.53915   0.00391   0.00046   0.00620   0.00665   2.54581
    d7        2.05351  -0.00208  -0.00052  -0.00144  -0.00196   2.05155
    d8        2.05190  -0.00204  -0.00052  -0.00140  -0.00191   2.04999
    d9        2.05242  -0.00206  -0.00052  -0.00144  -0.00196   2.05046
   d10        2.05199  -0.00217  -0.00052  -0.00169  -0.00221   2.04978
   d11        2.05206  -0.00203  -0.00051  -0.00141  -0.00192   2.05014
   d12        5.33812   0.00043  -0.00027   0.02837   0.02810   5.36622
   d13        2.27065  -0.00380   0.00002  -0.00424  -0.00422   2.26643
   d14        2.08392   0.00029  -0.00064   0.00480   0.00416   2.08808
   d15        2.08392   0.00031  -0.00064   0.00485   0.00421   2.08813
   d16        4.16539  -0.00292   0.00102  -0.14467  -0.14364   4.02174
   d17        1.74249  -0.00146  -0.00013  -0.00156  -0.00169   1.74080
         Item               Value     Threshold  Converged?
 Maximum Force            0.006554     0.000450     NO 
 RMS     Force            0.002728     0.000300     NO 
 Maximum Displacement     0.143643     0.001800     NO 
 RMS     Displacement     0.035653     0.001200     NO 
 Predicted change in Energy=-2.808673D-04
 GradGradGradGradGradGradGradGradGradGradGradGradGradGradGradGradGradGrad

 ---------------------------------------------------------------------------------------------------
                            Z-MATRIX (ANGSTROMS AND DEGREES)
   CD    Cent   Atom    N1       Length/X        N2       Alpha/Y        N3        Beta/Z          J
[...]
      6          6           0        1.188305    0.000000   -0.716809
      7          9           0       -1.172365   -0.000000   -0.676865
      8          1           0       -0.938473   -0.000000    1.920132
      9          1           0        1.197751   -0.000000    3.152558
     10          1           0        3.336713   -0.000000    1.917947
     11          1           0        3.336361   -0.000000   -0.559274
     12          1           0        1.167529   -0.000000   -1.799550
     13          8           0       -3.642499   -0.000000   -2.108752
     14          6           0       -4.679296   -0.000000   -2.711403
     15          1           0       -5.156667    0.955610   -2.988014
     16          1           0       -5.156731   -0.955738   -2.988051
     17          1           0       -1.454264    1.846051   -0.839620
     18          9           0       -1.315364    2.755656   -0.759426
 ---------------------------------------------------------------------
                    Distance matrix (angstroms):
                    1          2          3          4          5
     1  C    0.000000
     2  C    1.378304   0.000000
     3  C    2.391398   1.383044   0.000000
     4  C    2.765610   2.398763   1.386809   0.000000
     5  C    2.398830   2.775534   2.408577   1.394372   0.000000
     6  C    1.387762   2.408645   2.786651   2.418021   1.397717
     7  F    1.353731   2.366044   3.627915   4.119338   3.631408
     8  H    2.137203   1.083656   2.141463   3.381237   3.859185
     9  H    3.372422   2.140697   1.082732   2.144082   3.390362
    10  H    3.848659   3.380069   2.144347   1.083051   2.151151
    11  H    3.382911   3.858174   3.389073   2.150815   1.082645
    12  H    2.145112   3.385540   3.869494   3.406278   2.165648
    13  O    4.208876   5.042555   6.394414   6.974473   6.392831
    14  C    5.408097   6.214621   7.576267   8.173691   7.573216
    15  H    6.035945   6.824158   8.177625   8.777585   8.174288
    16  H    6.036038   6.824248   8.177713   8.777673   8.174375
    17  H    2.495546   3.231405   4.348099   4.812957   4.350731
    18  F    3.146514   3.727427   4.681245   5.094136   4.683819
                    6          7          8          9         10
     6  C    0.000000
     7  F    2.361008   0.000000
     8  H    3.387719   2.607509   0.000000
     9  H    3.869379   4.503547   2.466237   0.000000
    10  H    3.399647   5.202388   4.275187   2.469701   0.000000
    11  H    2.153825   4.510259   4.941827   4.283847   2.477221
    12  H    1.082940   2.595290   4.274492   4.952200   4.304084
    13  O    5.027342   2.855146   4.852181   7.149084   8.057524
    14  C    6.197349   4.054368   5.953559   8.302151   9.256742
    15  H    6.806631   4.704174   6.541884   8.888106   9.854904
    16  H    6.806721   4.704273   6.541972   8.888192   9.854991
    17  H    3.225858   1.874530   3.360086   5.136007   5.827996
    18  F    3.723414   2.760599   3.862087   5.404905   6.033555
                   11         12         13         14         15
    11  H    0.000000
    12  H    2.498422   0.000000
    13  O    7.148802   4.819956   0.000000
    14  C    8.299543   5.917503   1.199223   0.000000
    15  H    8.885015   6.505466   1.994742   1.103443   0.000000
    16  H    8.885100   6.505554   1.994869   1.103592   1.911348
    17  H    5.141652   3.347114   3.131609   4.160806   4.372215
    18  F    5.410383   3.852306   3.850958   4.766538   4.791907
                   16         17         18
    16  H    0.000000
    17  H    5.116057   0.000000
    18  F    5.787687   0.923637   0.000000
 Stoichiometry    C7H8F2O
 Framework group  C1[X(C7H8F2O)]
 Deg. of freedom    48
 Full point group                 C1      NOp   1
 Largest Abelian subgroup         C1      NOp   1
 Largest concise Abelian subgroup C1      NOp   1
                         Standard orientation:                         
 ---------------------------------------------------------------------
 Center     Atomic      Atomic             Coordinates (Angstroms)
 Number     Number       Type             X           Y           Z
 ---------------------------------------------------------------------
      1          6           0       -0.631175   -0.318040   -0.010958
      2          6           0       -1.319291   -0.263343   -1.203948
      3          6           0       -2.700457   -0.191314   -1.202930
      4          6           0       -3.393022   -0.174123   -0.001557
      5          6           0       -2.696884   -0.229458    1.205342
      6          6           0       -1.301065   -0.302251    1.204313
      7          9           0        0.720719   -0.388542   -0.011954
      8          1           0       -0.778119   -0.276777   -2.142704
      9          1           0       -3.241009   -0.148347   -2.140089
     10          1           0       -4.474603   -0.117718   -0.000760
     11          1           0       -3.237551   -0.216037    2.143222
     12          1           0       -0.742540   -0.345992    2.131079
     13          8           0        3.571984   -0.537317   -0.009073
     14          6           0        4.769574   -0.599828   -0.006444
     15          1           0        5.370319    0.325619    0.009056
     16          1           0        5.270840   -1.582901   -0.021024
     17          1           0        1.141937    1.437822    0.016859
     18          9           0        1.029144    2.354432    0.031292
 ---------------------------------------------------------------------
 Rotational constants (GHZ):           2.3541171           0.4790743           0.4621886

 **********************************************************************

            Population analysis using the SCF Density.

 **********************************************************************

 Orbital symmetries:
       Occupied  (A) (A) (A) (A) (A) (A) (A) (A) (A) (A) (A) (A)
                 (A) (A) (A) (A) (A) (A) (A) (A) (A) (A) (A) (A)
                 (A) (A) (A) (A) (A) (A) (A) (A) (A) (A) (A) (A)
                 (A) (A)
       Virtual   (A) (A) (A) (A) (A) (A) (A) (A) (A) (A) (A) (A)
                 (A) (A) (A) (A) (A) (A) (A) (A) (A) (A) (A) (A)
                 (A) (A) (A) (A) (A) (A) (A) (A) (A) (A) (A) (A)
                 (A) (A) (A) (A) (A) (A) (A) (A) (A) (A) (A) (A)
                 (A) (A) (A) (A) (A) (A) (A) (A) (A) (A) (A) (A)
                 (A) (A) (A) (A) (A) (A) (A) (A) (A) (A) (A) (A)
                 (A) (A) (A) (A) (A) (A) (A) (A) (A) (A) (A) (A)
                 (A) (A) (A) (A) (A) (A) (A) (A) (A) (A) (A) (A)
                 (A) (A) (A) (A) (A) (A) (A) (A) (A) (A) (A) (A)
                 (A) (A) (A) (A) (A) (A) (A) (A) (A) (A) (A) (A)
                 (A) (A) (A) (A) (A) (A) (A) (A) (A) (A) (A) (A)
                 (A) (A) (A) (A) (A) (A) (A) (A) (A) (A) (A) (A)
                 (A) (A) (A) (A) (A) (A) (A) (A) (A) (A) (A) (A)
                 (A) (A) (A) (A) (A) (A) (A) (A) (A) (A) (A) (A)
                 (A) (A) (A) (A) (A) (A) (A) (A) (A) (A) (A) (A)
                 (A) (A) (A) (A) (A) (A) (A) (A) (A) (A) (A) (A)
                 (A) (A) (A) (A) (A) (A) (A) (A) (A) (A) (A) (A)
                 (A) (A) (A) (A) (A) (A) (A) (A) (A) (A) (A) (A)
                 (A) (A) (A) (A) (A) (A) (A) (A) (A) (A) (A) (A)
                 (A) (A) (A) (A) (A) (A) (A) (A) (A) (A)
 The electronic state is 1-A.
 Alpha  occ. eigenvalues --  -25.26935 -25.20050 -19.64578 -10.64121 -10.63815
 Alpha  occ. eigenvalues --  -10.56091 -10.55955 -10.55863 -10.55710 -10.55310
 Alpha  occ. eigenvalues --   -1.38768  -1.31155  -1.19455  -0.98032  -0.86414
 Alpha  occ. eigenvalues --   -0.85876  -0.72699  -0.71937  -0.71319  -0.64196
 Alpha  occ. eigenvalues --   -0.62402  -0.58702  -0.58585  -0.58200  -0.57039
 Alpha  occ. eigenvalues --   -0.53773  -0.52571  -0.50805  -0.49402  -0.48399
 Alpha  occ. eigenvalues --   -0.48398  -0.47801  -0.44700  -0.44094  -0.41843
 Alpha  occ. eigenvalues --   -0.34852  -0.32422  -0.31407
 Alpha virt. eigenvalues --   -0.01141  -0.00185   0.00229   0.00515   0.01136
 Alpha virt. eigenvalues --    0.01466   0.01856   0.02664   0.03228   0.03702
 Alpha virt. eigenvalues --    0.05402   0.06685   0.06998   0.07376   0.08352
 Alpha virt. eigenvalues --    0.09497   0.10669   0.10950   0.11387   0.11849
 Alpha virt. eigenvalues --    0.12542   0.13219   0.13256   0.13544   0.13961
 Alpha virt. eigenvalues --    0.14181   0.14265   0.14904   0.15572   0.15893
 Alpha virt. eigenvalues --    0.15978   0.16494   0.17111   0.18589   0.20123
 Alpha virt. eigenvalues --    0.20145   0.21252   0.22103   0.22641   0.23036
 Alpha virt. eigenvalues --    0.24090   0.24625   0.25830   0.26190   0.28008
 Alpha virt. eigenvalues --    0.29795   0.30027   0.30553   0.31898   0.32395
 Alpha virt. eigenvalues --    0.32541   0.33526   0.33661   0.35480   0.35624
 Alpha virt. eigenvalues --    0.37797   0.37924   0.39135   0.39998   0.41397
 Alpha virt. eigenvalues --    0.42453   0.42845   0.44723   0.47924   0.49896
 Alpha virt. eigenvalues --    0.51143   0.52003   0.52730   0.55523   0.55790
 Alpha virt. eigenvalues --    0.57542   0.57872   0.58371   0.59323   0.59510
 Alpha virt. eigenvalues --    0.59964   0.60965   0.61137   0.63521   0.63665
 Alpha virt. eigenvalues --    0.64686   0.67707   0.68514   0.71930   0.73177
 Alpha virt. eigenvalues --    0.73837   0.76452   0.76511   0.79973   0.81672
 Alpha virt. eigenvalues --    0.83502   0.85460   0.87936   0.89095   0.90421
 Alpha virt. eigenvalues --    0.91201   0.93694   0.94378   0.94659   1.00900
 Alpha virt. eigenvalues --    1.03678   1.04653   1.05344   1.05429   1.05748
 Alpha virt. eigenvalues --    1.06367   1.12194   1.15558   1.16127   1.18171
 Alpha virt. eigenvalues --    1.21873   1.23265   1.24072   1.33613   1.33670
 Alpha virt. eigenvalues --    1.35887   1.39506   1.40834   1.44017   1.45054
 Alpha virt. eigenvalues --    1.47168   1.48569   1.48948   1.50399   1.53077
 Alpha virt. eigenvalues --    1.55192   1.56771   1.58071   1.60131   1.60570
 Alpha virt. eigenvalues --    1.60808   1.63053   1.64434   1.68179   1.68699
 Alpha virt. eigenvalues --    1.69490   1.70152   1.75722   1.76775   1.76869
 Alpha virt. eigenvalues --    1.77596   1.79744   1.85979   1.86555   1.89125
 Alpha virt. eigenvalues --    1.91689   1.94670   1.94926   1.96135   1.98195
 Alpha virt. eigenvalues --    1.98754   1.99760   2.02009   2.04728   2.06833
 Alpha virt. eigenvalues --    2.10099   2.11066   2.15368   2.16643   2.30006
 Alpha virt. eigenvalues --    2.30495   2.35438   2.39467   2.43625   2.44089
 Alpha virt. eigenvalues --    2.46986   2.48590   2.50388   2.52279   2.52810
 Alpha virt. eigenvalues --    2.59870   2.65511   2.66520   2.68838   2.71300
 Alpha virt. eigenvalues --    2.72502   2.73021   2.74050   2.75615   2.76274
 Alpha virt. eigenvalues --    2.79230   2.84134   2.85469   2.85609   2.88678
 Alpha virt. eigenvalues --    2.94149   2.94609   2.94668   2.98225   2.99473
 Alpha virt. eigenvalues --    3.14246   3.18958   3.26262   3.39499   3.39588
 Alpha virt. eigenvalues --    3.42918   3.49143   3.53078   3.55522   3.56998
 Alpha virt. eigenvalues --    3.66957   3.73444   3.79716   3.86895   3.92119
 Alpha virt. eigenvalues --    3.92326   3.94594   4.02792   4.04064   4.06567
 Alpha virt. eigenvalues --    4.09001   4.15840   4.16531   4.18546   4.20232
 Alpha virt. eigenvalues --    4.21047   4.85987   4.91777   4.95778   5.10680
 Alpha virt. eigenvalues --    5.21572   5.78751   6.44995   6.50786   6.53171
 Alpha virt. eigenvalues --    6.59417   6.85504   6.93820  23.68376  23.99806
 Alpha virt. eigenvalues --   24.01806  24.05251  24.15907  24.17270  24.27959
 Alpha virt. eigenvalues --   50.05064  66.93419  66.96274
          Condensed to atoms (all electrons):
               1          2          3          4          5          6
     1  C   14.081540  -5.234434   2.239905  -2.612085   2.216412  -4.582417
     2  C   -5.234434  14.140720  -2.651586   2.190415  -2.642641   0.035619
     3  C    2.239905  -2.651586   8.510230  -1.702985   2.126513  -2.672705
     4  C   -2.612085   2.190415  -1.702985   7.591531  -1.639617   2.085225
     5  C    2.216412  -2.642641   2.126513  -1.639617   8.278407  -2.485172
     6  C   -4.582417   0.035619  -2.672705   2.085225  -2.485172  13.465721
     7  F    0.650323  -0.488570   0.142046  -0.083589   0.138512  -0.467837
     8  H   -0.215085   0.614366  -0.095705   0.051656  -0.043545   0.007265
     9  H    0.031903  -0.037253   0.334274  -0.020929  -0.009822   0.026171
    10  H    0.023754  -0.026992   0.019882   0.317630   0.019975  -0.025380
    11  H    0.023965   0.028366  -0.011918  -0.016878   0.332500  -0.032764
    12  H   -0.196997   0.008406  -0.044744   0.048373  -0.089374   0.594058
    13  O    0.017669  -0.002576  -0.000878  -0.000103  -0.000709  -0.001725
    14  C    0.004054  -0.005755   0.001711  -0.000598   0.001651  -0.005297
    15  H    0.000130  -0.000074  -0.000015  -0.000023  -0.000011  -0.000076
    16  H   -0.000180   0.000276  -0.000115   0.000066  -0.000118   0.000231
    17  H   -0.091327   0.040203  -0.002771   0.006460  -0.002757   0.039726
    18  F    0.147818  -0.037195  -0.025135   0.009480  -0.024248  -0.035924
               7          8          9         10         11         12
     1  C    0.650323  -0.215085   0.031903   0.023754   0.023965  -0.196997
     2  C   -0.488570   0.614366  -0.037253  -0.026992   0.028366   0.008406
     3  C    0.142046  -0.095705   0.334274   0.019882  -0.011918  -0.044744
     4  C   -0.083589   0.051656  -0.020929   0.317630  -0.016878   0.048373
     5  C    0.138512  -0.043545  -0.009822   0.019975   0.332500  -0.089374
     6  C   -0.467837   0.007265   0.026171  -0.025380  -0.032764   0.594058
     7  F    9.242209  -0.030069   0.001787  -0.000817   0.001563  -0.029675
     8  H   -0.030069   0.492153  -0.004045   0.000575   0.000946   0.002374
     9  H    0.001787  -0.004045   0.467448   0.001169  -0.001022   0.000864
    10  H   -0.000817   0.000575   0.001169   0.471211   0.001394   0.000507
    11  H    0.001563   0.000946  -0.001022   0.001394   0.466636  -0.003074
    12  H   -0.029675   0.002374   0.000864   0.000507  -0.003074   0.489053
    13  O    0.008354   0.001556   0.000012  -0.000003   0.000012   0.001583
    14  C    0.003193  -0.000808   0.000024  -0.000006   0.000022  -0.000799
    15  H   -0.000875  -0.000057   0.000002   0.000000   0.000002  -0.000061
    16  H   -0.000298   0.000051  -0.000003   0.000000  -0.000003   0.000054
    17  H    0.043801  -0.000024   0.000016  -0.000025   0.000019  -0.000041
    18  F   -0.019851  -0.000610  -0.000867   0.000159  -0.000879  -0.000572
              13         14         15         16         17         18
     1  C    0.017669   0.004054   0.000130  -0.000180  -0.091327   0.147818
     2  C   -0.002576  -0.005755  -0.000074   0.000276   0.040203  -0.037195
     3  C   -0.000878   0.001711  -0.000015  -0.000115  -0.002771  -0.025135
     4  C   -0.000103  -0.000598  -0.000023   0.000066   0.006460   0.009480
     5  C   -0.000709   0.001651  -0.000011  -0.000118  -0.002757  -0.024248
     6  C   -0.001725  -0.005297  -0.000076   0.000231   0.039726  -0.035924
     7  F    0.008354   0.003193  -0.000875  -0.000298   0.043801  -0.019851
     8  H    0.001556  -0.000808  -0.000057   0.000051  -0.000024  -0.000610
     9  H    0.000012   0.000024   0.000002  -0.000003   0.000016  -0.000867
    10  H   -0.000003  -0.000006   0.000000   0.000000  -0.000025   0.000159
    11  H    0.000012   0.000022   0.000002  -0.000003   0.000019  -0.000879
    12  H    0.001583  -0.000799  -0.000061   0.000054  -0.000041  -0.000572
    13  O    8.111682   0.277843  -0.087746  -0.090944   0.002542  -0.001283
    14  C    0.277843   4.933952   0.387508   0.387730   0.001135  -0.000909
    15  H   -0.087746   0.387508   0.713059  -0.130027   0.000328   0.000198
    16  H   -0.090944   0.387730  -0.130027   0.721531  -0.000326  -0.000007
    17  H    0.002542   0.001135   0.000328  -0.000326   0.402909   0.316865
    18  F   -0.001283  -0.000909   0.000198  -0.000007   0.316865   8.926372
 Mulliken charges:
               1
     1  C   -0.504948
     2  C    0.068706
     3  C   -0.166004
     4  C   -0.224029
     5  C   -0.175957
     6  C    0.055280
     7  F   -0.110205
     8  H    0.219006
     9  H    0.210270
    10  H    0.196966
    11  H    0.211113
    12  H    0.220064
    13  O   -0.235285
    14  C    0.015348
    15  H    0.117737
    16  H    0.112082
    17  H    0.243268
    18  F   -0.253412
 Sum of Mulliken charges =  -0.00000
 Mulliken charges with hydrogens summed into heavy atoms:
               1
     1  C   -0.504948
     2  C    0.287712
     3  C    0.044266
     4  C   -0.027063
     5  C    0.035156
     6  C    0.275344
     7  F   -0.110205
    13  O   -0.235285
    14  C    0.245167
    18  F   -0.010143
 Electronic spatial extent (au):  <R**2>=           2427.3803
 Charge=             -0.0000 electrons
 Dipole moment (field-independent basis, Debye):
    X=              0.7097    Y=             -2.2679    Z=             -0.0355  Tot=              2.3766
 Quadrupole moment (field-independent basis, Debye-Ang):
   XX=            -30.6609   YY=            -68.3999   ZZ=            -51.4322
   XY=             -3.8504   XZ=              0.0556   YZ=             -0.2595
 Traceless Quadrupole moment (field-independent basis, Debye-Ang):
   XX=             19.5035   YY=            -18.2356   ZZ=             -1.2678
   XY=             -3.8504   XZ=              0.0556   YZ=             -0.2595
 Octapole moment (field-independent basis, Debye-Ang**2):
  XXX=            135.0391  YYY=             -6.2575  ZZZ=             -0.0330  XYY=             17.2856
  XXY=            -10.3299  XXZ=             -0.2270  XZZ=              0.7773  YZZ=              2.3075
  YYZ=             -0.2473  XYZ=              0.2260
 Hexadecapole moment (field-independent basis, Debye-Ang**3):
 XXXX=          -1674.4998 YYYY=           -342.7172 ZZZZ=           -274.5620 XXXY=            -79.8160
 XXXZ=             -0.2163 YYYX=            -28.6607 YYYZ=              0.2063 ZZZX=              0.4641
 ZZZY=             -0.4764 XXYY=           -483.8432 XXZZ=           -445.1938 YYZZ=           -108.2050
 XXYZ=             -0.5163 YYXZ=             -0.2858 ZZXY=              2.5364
 N-N= 4.762473163916D+02 E-N=-2.237280941121D+03  KE= 5.446156529020D+02
 1\1\GINC-R820\POpt\RM062X\6-311++G(d,p)\C7H8F2O1\ZJXU\28-Mar-2024\1\\#
  m062x 6-311++G(d,p) opt=z-matrix\\test\\0,1\C\C,1,d1\C,2,d2,1,120.\C,
 3,d3,2,120.,1,0.,0\C,4,d4,3,120.,2,0.,0\C,5,d5,4,120.,3,0.,0\F,1,d6,2,
 120.,3,180.,0\H,2,d7,3,120.,4,180.,0\H,3,d8,4,120.,5,180.,0\H,4,d9,5,1
 20.,6,180.,0\H,5,d10,6,120.,1,180.,0\H,6,d11,1,120.,2,180.,0\O,7,d12,1
 ,179.9,3,180.,0\C,13,d13,1,179.9,2,180.,0\H,14,d14,1,120.,2,90.,0\H,14
 ,d15,1,120.,2,-90.,0\H,7,d16,1,100.,2,90.,0\F,17,d17,7,160.,1,0.,0\\d1
 =1.37830404\d2=1.3830436\d3=1.38680901\d4=1.39437248\d5=1.39771667\d6=
 1.35373099\d7=1.08365556\d8=1.08273183\d9=1.08305144\d10=1.08264496\d1
 1=1.08293975\d12=2.85514595\d13=1.19922297\d14=1.10344331\d15=1.103591
 61\d16=1.87452957\d17=0.92363685\\Version=ES64L-G16RevB.01\State=1-A\H
 F=-546.3781508\RMSD=4.944e-09\RMSF=3.847e-03\Dipole=-0.2816909,-0.8766
 275,-0.1627317\Quadrupole=10.733152,-13.7822581,3.0491061,1.2060699,6.
 8240401,0.6841745\PG=C01 [X(C7H8F2O1)]\\@


 ALL PAPERS THAT YOU SAVE WILL NEVER BE NEEDED UNTIL
 SUCH TIME AS THEY ARE DISPOSED OF, WHEN THEY BECOME
 ESSENTIAL.

           -- JOHN CORCORAN IN
              PAUL DICKSON'S "THE OFFICIAL RULES"
 Job cpu time:       0 days  1 hours 39 minutes 43.0 seconds.
 Elapsed time:       0 days  0 hours 49 minutes 53.4 seconds.
 File lengths (MBytes):  RWF=     51 Int=      0 D2E=      0 Chk=      8 Scr=      1
 Normal termination of Gaussian 16 at Thu Mar 28 13:44:46 2024.
