 Entering Gaussian System, Link 0=g16
 Input=model_H2c.gjf
 Output=model_H2c.log
 Initial command:
 /home/zjxu/prog/g16/l1.exe "/home/zjxu/zjhan/5_model/HF/Gau-96438.inp" -scrdir="/home/zjxu/zjhan/5_model/HF/"
 Entering Link 1 = /home/zjxu/prog/g16/l1.exe PID=     96439.
  
 Copyright (c) 1988-2017, Gaussian, Inc.  All Rights Reserved.
  
 This is part of the Gaussian(R) 16 program.  It is based on
 the Gaussian(R) 09 system (copyright 2009, Gaussian, Inc.),
 the Gaussian(R) 03 system (copyright 2003, Gaussian, Inc.),
 the Gaussian(R) 98 system (copyright 1998, Gaussian, Inc.),
 the Gaussian(R) 94 system (copyright 1995, Gaussian, Inc.),
 the Gaussian 92(TM) system (copyright 1992, Gaussian, Inc.),
 the Gaussian 90(TM) system (copyright 1990, Gaussian, Inc.),
 the Gaussian 88(TM) system (copyright 1988, Gaussian, Inc.),
 the Gaussian 86(TM) system (copyright 1986, Carnegie Mellon
 University), and the Gaussian 82(TM) system (copyright 1983,
 Carnegie Mellon University). Gaussian is a federally registered
 trademark of Gaussian, Inc.
  
 This software contains proprietary and confidential information,
 including trade secrets, belonging to Gaussian, Inc.
  
 This software is provided under written license and may be
 used, copied, transmitted, or stored only in accord with that
 written license.
  
 The following legend is applicable only to US Government
 contracts under FAR:
  
                    RESTRICTED RIGHTS LEGEND
  
 Use, reproduction and disclosure by the US Government is
 subject to restrictions as set forth in subparagraphs (a)
 and (c) of the Commercial Computer Software - Restricted
 Rights clause in FAR 52.227-19.
  
 Gaussian, Inc.
 340 Quinnipiac St., Bldg. 40, Wallingford CT 06492
  
  
 ---------------------------------------------------------------
 Warning -- This program may not be used in any manner that
 competes with the business of Gaussian, Inc. or will provide
 assistance to any competitor of Gaussian, Inc.  The licensee
 of this program is prohibited from giving any competitor of
 Gaussian, Inc. access to this program.  By using this program,
 the user acknowledges that Gaussian, Inc. is engaged in the
 business of creating and licensing software in the field of
 computational chemistry and represents and warrants to the
 licensee that it is not a competitor of Gaussian, Inc. and that
 it will not use this program in any manner prohibited above.
 ---------------------------------------------------------------
  

 Cite this work as:
 Gaussian 16, Revision B.01,
 M. J. Frisch, G. W. Trucks, H. B. Schlegel, G. E. Scuseria, 
 M. A. Robb, J. R. Cheeseman, G. Scalmani, V. Barone, 
 G. A. Petersson, H. Nakatsuji, X. Li, M. Caricato, A. V. Marenich, 
 J. Bloino, B. G. Janesko, R. Gomperts, B. Mennucci, H. P. Hratchian, 
 J. V. Ortiz, A. F. Izmaylov, J. L. Sonnenberg, D. Williams-Young, 
 F. Ding, F. Lipparini, F. Egidi, J. Goings, B. Peng, A. Petrone, 
 T. Henderson, D. Ranasinghe, V. G. Zakrzewski, J. Gao, N. Rega, 
 G. Zheng, W. Liang, M. Hada, M. Ehara, K. Toyota, R. Fukuda, 
 J. Hasegawa, M. Ishida, T. Nakajima, Y. Honda, O. Kitao, H. Nakai, 
 T. Vreven, K. Throssell, J. A. Montgomery, Jr., J. E. Peralta, 
 F. Ogliaro, M. J. Bearpark, J. J. Heyd, E. N. Brothers, K. N. Kudin, 
 V. N. Staroverov, T. A. Keith, R. Kobayashi, J. Normand, 
 K. Raghavachari, A. P. Rendell, J. C. Burant, S. S. Iyengar, 
 J. Tomasi, M. Cossi, J. M. Millam, M. Klene, C. Adamo, R. Cammi, 
 J. W. Ochterski, R. L. Martin, K. Morokuma, O. Farkas, 
 J. B. Foresman, and D. J. Fox, Gaussian, Inc., Wallingford CT, 2016.
 
 ******************************************
 Gaussian 16:  ES64L-G16RevB.01 20-Dec-2017
                 4-Jul-2024 
 ******************************************
 %mem=4GB
 %nproc=4
 Will use up to    4 processors via shared memory.
 %chk=model_H2b
 ----------------------------------
 # m062x 6-311++G(d,p) opt=z-matrix
 ----------------------------------
 1/10=7,18=40,26=3,38=1/1,3;
 2/12=2,17=6,18=5,29=3,40=1/2;
 3/5=4,6=6,7=1111,11=2,25=1,30=1,71=1,74=-55/1,2,3;
 4//1;
 5/5=2,38=5/2;
 6/7=2,8=2,9=2,10=2,28=1/1;
 7/29=1/1,2,3,16;
 1/10=7,18=40,26=3/3(2);
 2/29=3/2;
 99//99;
 2/29=3/2;
 3/5=4,6=6,7=1111,11=2,25=1,30=1,71=1,74=-55/1,2,3;
 4/5=5,16=3,69=1/1;
 5/5=2,38=5/2;
 7//1,2,3,16;
 1/18=40,26=3/3(-5);
 2/29=3/2;
 6/7=2,8=2,9=2,10=2,19=2,28=1/1;
 99/9=1/99;
 ----
 test
 ----
 Symbolic Z-matrix:
 Charge =  0 Multiplicity = 1
 C1
 C2                   1    d1
 C3                   2    d2       1     120. 
 C4                   3    d3       2     120.     1     0.       0
 C5                   4    d4       3     120.     2     0.       0
 C6                   5    d5       4     120.     3     0.       0
 F7                   1    d6       2     120.     3     180.     0
 H8                   2    d7       3     120.     4     180.     0
 H9                   3    d8       4     120.     5     180.     0
 H10                  4    d9       5     120.     6     180.     0
 H11                  5    d10      6     120.     1     180.     0
 H12                  6    d11      1     120.     2     180.     0
 O13                  7    d12      1     179.9    3     180.     0
 C14                  13   d13      1     179.9    2     180.     0
 H15                  14   d14      1     120.     2     90.      0
 H16                  14   d15      1     120.     2    -90.      0
 H17                  7    d16      1     100.     2     180.     0
 F18                  17   d17      7     160.     1     0.       0
 H19                  7    d18      1     100.     2     0.       0
 F20                  19   d19      7     160.     1     0.       0
       Variables:
  d1                    1.3                      
  d2                    1.3                      
  d3                    1.3                      
  d4                    1.3                      
  d5                    1.3                      
  d6                    1.4                      
  d7                    1.                       
  d8                    1.                       
  d9                    1.                       
  d10                   1.                       
  d11                   1.                       
  d12                   2.8                      
  d13                   1.2                      
  d14                   1.                       
  d15                   1.                       
  d16                   2.3                      
  d17                   0.9                      
  d18                   2.3                      
  d19                   0.9                      
 

 GradGradGradGradGradGradGradGradGradGradGradGradGradGradGradGradGradGrad
 Berny optimization.
 Initialization pass.
                       ----------------------------
                       !    Initial Parameters    !
                       ! (Angstroms and Degrees)  !
 ----------------------                            ----------------------
 !      Name          Value   Derivative information (Atomic Units)     !
 ------------------------------------------------------------------------
 !       d1          1.3      estimate D2E/DX2                          !
 !       d2          1.3      estimate D2E/DX2                          !
 !       d3          1.3      estimate D2E/DX2                          !
 !       d4          1.3      estimate D2E/DX2                          !
 !       d5          1.3      estimate D2E/DX2                          !
 !       d6          1.4      estimate D2E/DX2                          !
 !       d7          1.0      estimate D2E/DX2                          !
 !       d8          1.0      estimate D2E/DX2                          !
 !       d9          1.0      estimate D2E/DX2                          !
 !       d10         1.0      estimate D2E/DX2                          !
 !       d11         1.0      estimate D2E/DX2                          !
 !       d12         2.8      estimate D2E/DX2                          !
 !       d13         1.2      estimate D2E/DX2                          !
 !       d14         1.0      estimate D2E/DX2                          !
 !       d15         1.0      estimate D2E/DX2                          !
 !       d16         2.3      estimate D2E/DX2                          !
 !       d17         0.9      estimate D2E/DX2                          !
 !       d18         2.3      estimate D2E/DX2                          !
 !       d19         0.9      estimate D2E/DX2                          !
 ------------------------------------------------------------------------
 Trust Radius=3.00D-01 FncErr=1.00D-07 GrdErr=1.00D-06 EigMax=2.50D+02 EigMin=1.00D-04
 Number of steps in this run=     29 maximum allowed number of steps=    100.
 GradGradGradGradGradGradGradGradGradGradGradGradGradGradGradGradGradGrad

 ---------------------------------------------------------------------------------------------------
                            Z-MATRIX (ANGSTROMS AND DEGREES)
   CD    Cent   Atom    N1       Length/X        N2       Alpha/Y        N3        Beta/Z          J
 ---------------------------------------------------------------------------------------------------
      1      1  C 
      2      2  C        1   1.300000(     1)
      3      3  C        2   1.300000(     2)      1  120.000(    20)
      4      4  C        3   1.300000(     3)      2  120.000(    21)      1    0.000(    38)      0
      5      5  C        4   1.300000(     4)      3  120.000(    22)      2    0.000(    39)      0
      6      6  C        5   1.300000(     5)      4  120.000(    23)      3    0.000(    40)      0
      7      7  F        1   1.400000(     6)      2  120.000(    24)      3  180.000(    41)      0
      8      8  H        2   1.000000(     7)      3  120.000(    25)      4  180.000(    42)      0
      9      9  H        3   1.000000(     8)      4  120.000(    26)      5  180.000(    43)      0
     10     10  H        4   1.000000(     9)      5  120.000(    27)      6  180.000(    44)      0
     11     11  H        5   1.000000(    10)      6  120.000(    28)      1  180.000(    45)      0
     12     12  H        6   1.000000(    11)      1  120.000(    29)      2  180.000(    46)      0
     13     13  O        7   2.800000(    12)      1  179.900(    30)      3  180.000(    47)      0
     14     14  C       13   1.200000(    13)      1  179.900(    31)      2  180.000(    48)      0
     15     15  H       14   1.000000(    14)      1  120.000(    32)      2   90.000(    49)      0
     16     16  H       14   1.000000(    15)      1  120.000(    33)      2  -90.000(    50)      0
     17     17  H        7   2.300000(    16)      1  100.000(    34)      2  180.000(    51)      0
     18     18  F       17   0.900000(    17)      7  160.000(    35)      1    0.000(    52)      0
     19     19  H        7   2.300000(    18)      1  100.000(    36)      2    0.000(    53)      0
     20     20  F       19   0.900000(    19)      7  160.000(    37)      1    0.000(    54)      0
 ---------------------------------------------------------------------------------------------------
                         Z-Matrix orientation:                         
 ---------------------------------------------------------------------
 Center     Atomic      Atomic             Coordinates (Angstroms)
 Number     Number       Type             X           Y           Z
 ---------------------------------------------------------------------
      1          6           0        0.000000    0.000000    0.000000
      2          6           0        0.000000    0.000000    1.300000
      3          6           0        1.125833    0.000000    1.950000
      4          6           0        2.251666    0.000000    1.300000
      5          6           0        2.251666    0.000000   -0.000000
      6          6           0        1.125833    0.000000   -0.650000
      7          9           0       -1.212436   -0.000000   -0.700000
      8          1           0       -0.866025   -0.000000    1.800000
      9          1           0        1.125833   -0.000000    2.950000
     10          1           0        3.117691   -0.000000    1.800000
     11          1           0        3.117691   -0.000000   -0.500000
     12          1           0        1.125833   -0.000000   -1.650000
     13          8           0       -3.634860   -0.000000   -2.104230
     14          6           0       -4.672340   -0.000000   -2.707251
     15          1           0       -5.104965    0.866025   -2.957922
     16          1           0       -5.104965   -0.866025   -2.957922
     17          1           0       -0.425789    0.000000   -2.861293
     18          9           0        0.152720    0.000000   -3.550733
     19          1           0       -2.690847   -0.000000    1.061902
     20          9           0       -2.998665   -0.000000    1.907626
 ---------------------------------------------------------------------
                    Distance matrix (angstroms):
                    1          2          3          4          5
     1  C    0.000000
     2  C    1.300000   0.000000
     3  C    2.251666   1.300000   0.000000
     4  C    2.600000   2.251666   1.300000   0.000000
     5  C    2.251666   2.600000   2.251666   1.300000   0.000000
     6  C    1.300000   2.251666   2.600000   2.251666   1.300000
     7  F    1.400000   2.338803   3.534119   4.000000   3.534119
     8  H    1.997498   1.000000   1.997498   3.157531   3.600000
     9  H    3.157531   1.997498   1.000000   1.997498   3.157531
    10  H    3.600000   3.157531   1.997498   1.000000   1.997498
    11  H    3.157531   3.600000   3.157531   1.997498   1.000000
    12  H    1.997498   3.157531   3.600000   3.157531   1.997498
    13  O    4.199999   4.980059   6.253077   6.799997   6.251317
    14  C    5.399997   6.155390   7.436988   7.999995   7.434452
    15  H    5.963218   6.703772   7.978755   8.543999   7.976172
    16  H    5.963218   6.703772   7.978755   8.543999   7.976172
    17  H    2.892800   4.183020   5.055301   4.948245   3.918643
    18  F    3.554016   4.853137   5.586145   5.285375   4.124716
    19  H    2.892800   2.701360   3.918643   4.948245   5.055301
    20  F    3.554016   3.059608   4.124716   5.285375   5.586145
                    6          7          8          9         10
     6  C    0.000000
     7  F    2.338803   0.000000
     8  H    3.157531   2.523886   0.000000
     9  H    3.600000   4.334743   2.300000   0.000000
    10  H    3.157531   5.000000   3.983717   2.300000   0.000000
    11  H    1.997498   4.334743   4.600000   3.983717   2.300000
    12  H    1.000000   2.523886   3.983717   4.600000   3.983717
    13  O    4.977849   2.800000   4.786382   6.943301   7.799997
    14  C    6.152324   3.999999   5.899436   8.100821   8.999995
    15  H    6.700697   4.582575   6.430896   8.629970   9.539387
    16  H    6.700697   4.582575   6.430896   8.629970   9.539387
    17  H    2.701360   2.300000   4.682036   6.014870   5.855246
    18  F    3.059608   3.160748   5.446851   6.573164   6.117303
    19  H    4.183020   2.300000   1.968442   4.258164   5.855246
    20  F    4.853137   3.160748   2.135354   4.254178   6.117303
                   11         12         13         14         15
    11  H    0.000000
    12  H    2.300000   0.000000
    13  O    6.940497   4.782313   0.000000
    14  C    8.096700   5.893776   1.200000   0.000000
    15  H    8.625744   6.425224   1.907878   1.000000   0.000000
    16  H    8.625744   6.425224   1.907878   1.000000   1.732051
    17  H    4.258164   1.968442   3.297162   4.249344   4.759624
    18  F    4.254178   2.135354   4.054396   4.898231   5.361405
    19  H    6.014870   4.682036   3.303869   4.258266   4.768328
    20  F    6.573164   5.446851   4.061986   4.908999   5.372155
                   16         17         18         19         20
    16  H    0.000000
    17  H    4.759624   0.000000
    18  F    5.361405   0.900000   0.000000
    19  H    4.768328   4.530116   5.418697   0.000000
    20  F    5.372155   5.418697   6.302770   0.900000   0.000000
 Stoichiometry    C7H9F3O
 Framework group  CS[SG(C7H7F3O),X(H2)]
 Deg. of freedom    36
 Full point group                 CS      NOp   2
 Largest Abelian subgroup         CS      NOp   2
 Largest concise Abelian subgroup CS      NOp   2
                         Standard orientation:                         
 ---------------------------------------------------------------------
 Center     Atomic      Atomic             Coordinates (Angstroms)
 Number     Number       Type             X           Y           Z
 ---------------------------------------------------------------------
      1          6           0       -0.001252   -0.790402   -0.000000
      2          6           0       -1.127085   -1.440402   -0.000000
      3          6           0       -1.127085   -2.740402   -0.000000
      4          6           0       -0.001252   -3.390402   -0.000000
      5          6           0        1.124581   -2.740402   -0.000000
      6          6           0        1.124581   -1.440402   -0.000000
      7          9           0       -0.001252    0.609598    0.000000
      8          1           0       -1.993110   -0.940402    0.000000
      9          1           0       -1.993110   -3.240402   -0.000000
     10          1           0       -0.001252   -4.390402   -0.000000
     11          1           0        1.990606   -3.240402   -0.000000
     12          1           0        1.990606   -0.940402   -0.000000
     13          8           0        0.003635    3.409593    0.000000
     14          6           0        0.007126    4.609588    0.000000
     15          1           0        0.007901    5.109588    0.866025
     16          1           0        0.007901    5.109588   -0.866025
     17          1           0        2.263806    1.008988   -0.000000
     18          9           0        3.150133    0.852705   -0.000000
     19          1           0       -2.266310    1.008988    0.000000
     20          9           0       -3.152637    0.852705    0.000000
 ---------------------------------------------------------------------
 Rotational constants (GHZ):           1.0844070           0.5322055           0.3577621
 Standard basis: 6-311++G(d,p) (5D, 7F)
 There are   236 symmetry adapted cartesian basis functions of A'  symmetry.
 There are    80 symmetry adapted cartesian basis functions of A"  symmetry.
 There are   225 symmetry adapted basis functions of A'  symmetry.
 There are    80 symmetry adapted basis functions of A"  symmetry.
   305 basis functions,   477 primitive gaussians,   316 cartesian basis functions
    43 alpha electrons       43 beta electrons
       nuclear repulsion energy       589.3165240168 Hartrees.
 NAtoms=   20 NActive=   20 NUniq=   19 SFac= 1.11D+00 NAtFMM=   60 NAOKFM=F Big=F
 Integral buffers will be    131072 words long.
 Raffenetti 2 integral format.
 Two-electron integral symmetry is turned on.
 One-electron integrals computed using PRISM.
 NBasis=   305 RedAO= T EigKep=  2.78D-06  NBF=   225    80
 NBsUse=   304 1.00D-06 EigRej=  4.29D-07 NBFU=   224    80
 ExpMin= 3.60D-02 ExpMax= 1.14D+04 ExpMxC= 1.72D+03 IAcc=3 IRadAn=         5 AccDes= 0.00D+00
 Harris functional with IExCor= 1009 and IRadAn=       5 diagonalized for initial guess.
 HarFok:  IExCor= 1009 AccDes= 0.00D+00 IRadAn=         5 IDoV= 1 UseB2=F ITyADJ=14
 ICtDFT=  3500011 ScaDFX=  1.000000  1.000000  1.000000  1.000000
 FoFCou: FMM=F IPFlag=           0 FMFlag=      100000 FMFlg1=           0
         NFxFlg=           0 DoJE=T BraDBF=F KetDBF=T FulRan=T
         wScrn=  0.000000 ICntrl=       500 IOpCl=  0 I1Cent=   200000004 NGrid=           0
         NMat0=    1 NMatS0=      1 NMatT0=    0 NMatD0=    1 NMtDS0=    0 NMtDT0=    0
 Petite list used in FoFCou.
 Initial guess orbital symmetries:
       Occupied  (A') (A') (A') (A') (A') (A') (A') (A') (A') (A')
                 (A') (A') (A') (A') (A') (A') (A') (A') (A') (A')
                 (A') (A') (A') (A') (A') (A") (A') (A') (A') (A')
                 (A") (A') (A') (A') (A") (A") (A') (A") (A') (A')
                 (A") (A") (A")
       Virtual   (A') (A") (A") (A') (A') (A') (A') (A') (A') (A')
                 (A") (A") (A") (A') (A') (A') (A") (A") (A') (A')
                 (A') (A') (A') (A') (A') (A") (A') (A") (A') (A')
                 (A") (A') (A') (A') (A') (A') (A') (A") (A") (A')
                 (A') (A') (A') (A') (A') (A") (A') (A') (A') (A')
                 (A") (A') (A') (A') (A") (A') (A') (A') (A') (A')
                 (A') (A') (A") (A') (A') (A') (A') (A') (A") (A')
                 (A') (A') (A") (A') (A") (A') (A') (A") (A') (A')
                 (A') (A') (A") (A') (A') (A") (A') (A') (A") (A')
                 (A") (A') (A') (A') (A') (A') (A') (A') (A') (A')
                 (A") (A') (A') (A') (A") (A') (A') (A") (A') (A")
                 (A') (A") (A') (A') (A") (A') (A") (A") (A') (A')
                 (A') (A") (A") (A') (A') (A') (A') (A") (A') (A")
                 (A") (A') (A') (A') (A") (A') (A') (A') (A") (A")
                 (A') (A') (A') (A") (A") (A') (A') (A') (A') (A")
                 (A") (A') (A') (A') (A') (A') (A") (A') (A") (A')
                 (A") (A') (A') (A') (A") (A') (A') (A') (A") (A')
                 (A') (A') (A') (A") (A') (A") (A') (A') (A") (A')
                 (A") (A') (A') (A') (A") (A') (A') (A') (A") (A')
                 (A') (A") (A') (A') (A') (A') (A") (A") (A') (A")
                 (A') (A') (A') (A") (A') (A') (A') (A') (A') (A')
                 (A') (A") (A') (A') (A") (A") (A') (A') (A') (A")
                 (A') (A") (A") (A') (A') (A") (A") (A') (A') (A')
                 (A') (A') (A') (A') (A') (A') (A') (A') (A') (A")
                 (A') (A") (A") (A') (A") (A') (A') (A') (A') (A')
                 (A') (A') (A') (A') (A') (A') (A') (A') (A') (A')
                 (A')
 The electronic state of the initial guess is 1-A'.
 Requested convergence on RMS density matrix=1.00D-08 within 128 cycles.
 Requested convergence on MAX density matrix=1.00D-06.
 Requested convergence on             energy=1.00D-06.
 No special actions if energy rises.
 SCF Done:  E(RM062X) =  -646.727505801     A.U. after   13 cycles
            NFock= 13  Conv=0.99D-08     -V/T= 1.9989

 **********************************************************************

            Population analysis using the SCF Density.

 **********************************************************************

 Orbital symmetries:
       Occupied  (A') (A') (A') (A') (A') (A') (A') (A') (A') (A')
                 (A') (A') (A') (A') (A') (A') (A') (A') (A') (A')
                 (A') (A') (A') (A') (A") (A') (A') (A") (A') (A')
                 (A') (A') (A") (A") (A') (A') (A') (A") (A') (A')
                 (A") (A") (A")
       Virtual   (A') (A') (A') (A') (A') (A") (A") (A") (A') (A')
                 (A') (A') (A") (A') (A") (A") (A') (A') (A') (A")
                 (A') (A') (A') (A') (A') (A") (A') (A") (A') (A')
                 (A') (A") (A') (A') (A') (A') (A') (A') (A') (A')
                 (A") (A') (A") (A') (A") (A') (A") (A') (A') (A')
                 (A') (A') (A") (A') (A') (A') (A') (A') (A") (A')
                 (A') (A') (A') (A') (A') (A') (A') (A') (A') (A")
                 (A') (A') (A") (A') (A") (A') (A') (A') (A") (A')
                 (A') (A') (A") (A') (A") (A') (A') (A') (A') (A")
                 (A") (A') (A') (A') (A') (A') (A') (A') (A') (A')
                 (A') (A') (A") (A') (A') (A') (A') (A") (A") (A')
                 (A') (A') (A") (A') (A") (A") (A") (A') (A") (A')
                 (A") (A") (A') (A') (A') (A') (A") (A") (A') (A')
                 (A") (A') (A") (A') (A') (A') (A') (A') (A') (A')
                 (A') (A") (A") (A") (A") (A') (A') (A') (A') (A")
                 (A') (A") (A') (A') (A') (A") (A') (A') (A') (A")
                 (A') (A") (A') (A') (A") (A') (A') (A') (A') (A')
                 (A") (A') (A') (A") (A') (A") (A') (A') (A") (A')
                 (A') (A') (A') (A') (A") (A') (A') (A") (A') (A')
                 (A') (A') (A") (A') (A") (A') (A') (A") (A") (A")
                 (A') (A') (A') (A") (A') (A') (A') (A') (A') (A")
                 (A') (A') (A') (A') (A') (A") (A") (A") (A') (A')
                 (A') (A") (A") (A') (A') (A') (A") (A") (A') (A')
                 (A') (A') (A') (A') (A') (A') (A') (A') (A') (A")
                 (A') (A") (A") (A") (A') (A') (A') (A') (A') (A')
                 (A') (A') (A') (A') (A') (A') (A') (A') (A') (A')
                 (A')
 The electronic state is 1-A'.
 Alpha  occ. eigenvalues --  -25.26353 -25.22684 -25.22683 -19.64713 -10.62641
 Alpha  occ. eigenvalues --  -10.61821 -10.52762 -10.52760 -10.52630 -10.52623
 Alpha  occ. eigenvalues --  -10.51978  -1.36857  -1.34652  -1.34628  -1.19830
 Alpha  occ. eigenvalues --   -1.03601  -0.89822  -0.88994  -0.76290  -0.74553
 Alpha  occ. eigenvalues --   -0.72935  -0.67141  -0.64383  -0.64309  -0.61604
 Alpha  occ. eigenvalues --   -0.59739  -0.59464  -0.57462  -0.54982  -0.54266
 Alpha  occ. eigenvalues --   -0.53955  -0.51489  -0.51196  -0.51185  -0.50768
 Alpha  occ. eigenvalues --   -0.50217  -0.48225  -0.48213  -0.44948  -0.42350
 Alpha  occ. eigenvalues --   -0.35812  -0.34250  -0.33296
 Alpha virt. eigenvalues --   -0.01754  -0.00429   0.00155   0.01525   0.01754
 Alpha virt. eigenvalues --    0.02118   0.02561   0.03053   0.03240   0.03848
 Alpha virt. eigenvalues --    0.05624   0.06056   0.06094   0.07565   0.08468
 Alpha virt. eigenvalues --    0.09140   0.09167   0.10215   0.10913   0.11609
 Alpha virt. eigenvalues --    0.12406   0.12585   0.13009   0.13327   0.14247
 Alpha virt. eigenvalues --    0.14385   0.14416   0.14503   0.15796   0.16408
 Alpha virt. eigenvalues --    0.16606   0.16687   0.18809   0.19177   0.19550
 Alpha virt. eigenvalues --    0.20534   0.20988   0.21621   0.21847   0.22492
 Alpha virt. eigenvalues --    0.23111   0.24648   0.25583   0.26008   0.26744
 Alpha virt. eigenvalues --    0.27313   0.29407   0.30150   0.30486   0.30862
 Alpha virt. eigenvalues --    0.32635   0.33057   0.33063   0.34950   0.35029
 Alpha virt. eigenvalues --    0.35586   0.37757   0.38049   0.39285   0.39858
 Alpha virt. eigenvalues --    0.40994   0.41321   0.41429   0.42542   0.44031
 Alpha virt. eigenvalues --    0.45062   0.47289   0.49412   0.50628   0.53524
 Alpha virt. eigenvalues --    0.53810   0.54081   0.55662   0.55909   0.58218
 Alpha virt. eigenvalues --    0.58331   0.59848   0.60310   0.60544   0.63018
 Alpha virt. eigenvalues --    0.63705   0.64833   0.65003   0.66253   0.66562
 Alpha virt. eigenvalues --    0.67064   0.68181   0.69460   0.70215   0.72416
 Alpha virt. eigenvalues --    0.73754   0.74855   0.79772   0.81284   0.82030
 Alpha virt. eigenvalues --    0.84553   0.86834   0.88157   0.90333   0.92182
 Alpha virt. eigenvalues --    0.96988   0.98913   0.99762   1.00173   1.01950
 Alpha virt. eigenvalues --    1.01992   1.05291   1.06813   1.07452   1.07551
 Alpha virt. eigenvalues --    1.11332   1.11627   1.15733   1.17311   1.17917
 Alpha virt. eigenvalues --    1.21824   1.23434   1.24619   1.26749   1.29587
 Alpha virt. eigenvalues --    1.32917   1.33120   1.34524   1.39980   1.41091
 Alpha virt. eigenvalues --    1.41104   1.45248   1.45537   1.45815   1.48836
 Alpha virt. eigenvalues --    1.49926   1.51989   1.52921   1.53705   1.56710
 Alpha virt. eigenvalues --    1.59329   1.60315   1.61424   1.63629   1.64808
 Alpha virt. eigenvalues --    1.66618   1.67216   1.67568   1.69477   1.71737
 Alpha virt. eigenvalues --    1.72286   1.76433   1.76942   1.78538   1.81027
 Alpha virt. eigenvalues --    1.84164   1.85198   1.85596   1.89160   1.95776
 Alpha virt. eigenvalues --    1.95916   1.97640   1.99411   2.02370   2.03854
 Alpha virt. eigenvalues --    2.05201   2.05251   2.06489   2.07551   2.11410
 Alpha virt. eigenvalues --    2.14432   2.17498   2.17684   2.18456   2.19198
 Alpha virt. eigenvalues --    2.21163   2.27412   2.29177   2.33198   2.42376
 Alpha virt. eigenvalues --    2.45619   2.47445   2.48268   2.50500   2.55754
 Alpha virt. eigenvalues --    2.57848   2.61502   2.65307   2.65827   2.69471
 Alpha virt. eigenvalues --    2.72923   2.73859   2.74059   2.76687   2.78089
 Alpha virt. eigenvalues --    2.79226   2.80442   2.86036   2.86231   2.87004
 Alpha virt. eigenvalues --    2.87825   2.89432   2.95787   2.97202   2.97976
 Alpha virt. eigenvalues --    3.02707   3.07801   3.11494   3.23258   3.27568
 Alpha virt. eigenvalues --    3.34227   3.39438   3.43386   3.54292   3.58734
 Alpha virt. eigenvalues --    3.62305   3.64506   3.75066   3.77003   3.87401
 Alpha virt. eigenvalues --    3.87524   3.89067   3.89117   3.91904   3.92119
 Alpha virt. eigenvalues --    3.97854   3.98645   4.03799   4.08007   4.13318
 Alpha virt. eigenvalues --    4.14902   4.15097   4.15504   4.17896   4.17917
 Alpha virt. eigenvalues --    4.20838   4.25884   4.29673   4.35965   4.93257
 Alpha virt. eigenvalues --    4.93652   4.94600   4.96896   5.11928   5.22312
 Alpha virt. eigenvalues --    5.81349   6.41618   6.41640   6.47838   6.52490
 Alpha virt. eigenvalues --    6.53705   6.63409   6.84915   6.88691   6.89870
 Alpha virt. eigenvalues --   23.72856  24.16951  24.26383  24.31418  24.53868
 Alpha virt. eigenvalues --   24.57052  24.72987  50.05945  66.92748  66.94364
 Alpha virt. eigenvalues --   66.95679
          Condensed to atoms (all electrons):
               1          2          3          4          5          6
     1  C   11.394322  -0.193489  -2.347064  -0.275077  -2.353855  -0.196183
     2  C   -0.193489  10.282866  -0.646987  -0.606533   0.368879  -3.362386
     3  C   -2.347064  -0.646987   9.692098   0.798389  -2.121516   0.367913
     4  C   -0.275077  -0.606533   0.798389   5.818257   0.799313  -0.603279
     5  C   -2.353855   0.368879  -2.121516   0.799313   9.697716  -0.646566
     6  C   -0.196183  -3.362386   0.367913  -0.603279  -0.646566  10.282785
     7  F    0.370384  -0.236569  -0.023386   0.030166  -0.023865  -0.237097
     8  H   -0.298595   0.471478   0.046010  -0.051028   0.060067   0.044059
     9  H    0.011470  -0.065965   0.454705  -0.072104  -0.033823   0.037946
    10  H    0.008716  -0.016624  -0.047912   0.468802  -0.047992  -0.016485
    11  H    0.011734   0.038120  -0.033865  -0.072277   0.454465  -0.065985
    12  H   -0.298367   0.044715   0.060088  -0.051272   0.046082   0.470841
    13  O    0.061394  -0.021253  -0.003259  -0.001037  -0.003302  -0.021384
    14  C   -0.009625   0.001746   0.000620   0.000512   0.000632   0.001777
    15  H   -0.000544   0.000210   0.000044  -0.000002   0.000045   0.000206
    16  H   -0.000544   0.000210   0.000044  -0.000002   0.000045   0.000206
    17  H    0.056273  -0.007993   0.004558  -0.001193  -0.031501   0.019049
    18  F   -0.210665  -0.006730  -0.006169   0.005967   0.114865   0.101419
    19  H    0.056430   0.018550  -0.031475  -0.001213   0.004598  -0.007670
    20  F   -0.211100   0.101587   0.115246   0.006018  -0.006192  -0.006867
               7          8          9         10         11         12
     1  C    0.370384  -0.298595   0.011470   0.008716   0.011734  -0.298367
     2  C   -0.236569   0.471478  -0.065965  -0.016624   0.038120   0.044715
     3  C   -0.023386   0.046010   0.454705  -0.047912  -0.033865   0.060088
     4  C    0.030166  -0.051028  -0.072104   0.468802  -0.072277  -0.051272
     5  C   -0.023865   0.060067  -0.033823  -0.047992   0.454465   0.046082
     6  C   -0.237097   0.044059   0.037946  -0.016485  -0.065985   0.470841
     7  F    9.360360  -0.019417  -0.001718   0.001134  -0.001709  -0.019527
     8  H   -0.019417   0.658171  -0.028412   0.000446   0.002261   0.001587
     9  H   -0.001718  -0.028412   0.511594  -0.016180   0.001178   0.002258
    10  H    0.001134   0.000446  -0.016180   0.508181  -0.016175   0.000440
    11  H   -0.001709   0.002261   0.001178  -0.016175   0.511599  -0.028409
    12  H   -0.019527   0.001587   0.002258   0.000440  -0.028409   0.658248
    13  O    0.008942  -0.002755   0.000107  -0.000014   0.000108  -0.002787
    14  C    0.004204   0.000438  -0.000046   0.000015  -0.000046   0.000437
    15  H   -0.000698   0.000111  -0.000001   0.000000  -0.000001   0.000113
    16  H   -0.000698   0.000111  -0.000001   0.000000  -0.000001   0.000113
    17  H    0.019130   0.001411   0.000089  -0.000314   0.003728  -0.058358
    18  F   -0.005357  -0.000210  -0.000047   0.000262  -0.001117   0.040618
    19  H    0.019043  -0.058371   0.003725  -0.000314   0.000088   0.001414
    20  F   -0.005340   0.040667  -0.001120   0.000262  -0.000047  -0.000213
              13         14         15         16         17         18
     1  C    0.061394  -0.009625  -0.000544  -0.000544   0.056273  -0.210665
     2  C   -0.021253   0.001746   0.000210   0.000210  -0.007993  -0.006730
     3  C   -0.003259   0.000620   0.000044   0.000044   0.004558  -0.006169
     4  C   -0.001037   0.000512  -0.000002  -0.000002  -0.001193   0.005967
     5  C   -0.003302   0.000632   0.000045   0.000045  -0.031501   0.114865
     6  C   -0.021384   0.001777   0.000206   0.000206   0.019049   0.101419
     7  F    0.008942   0.004204  -0.000698  -0.000698   0.019130  -0.005357
     8  H   -0.002755   0.000438   0.000111   0.000111   0.001411  -0.000210
     9  H    0.000107  -0.000046  -0.000001  -0.000001   0.000089  -0.000047
    10  H   -0.000014   0.000015   0.000000   0.000000  -0.000314   0.000262
    11  H    0.000108  -0.000046  -0.000001  -0.000001   0.003728  -0.001117
    12  H   -0.002787   0.000437   0.000113   0.000113  -0.058358   0.040618
    13  O    8.133731   0.301574  -0.089259  -0.089259   0.008332  -0.001277
    14  C    0.301574   4.830580   0.397400   0.397400  -0.000349   0.000040
    15  H   -0.089259   0.397400   0.746709  -0.164813  -0.000231  -0.000146
    16  H   -0.089259   0.397400  -0.164813   0.746709  -0.000231  -0.000146
    17  H    0.008332  -0.000349  -0.000231  -0.000231   0.441509   0.318612
    18  F   -0.001277   0.000040  -0.000146  -0.000146   0.318612   8.854711
    19  H    0.008263  -0.000357  -0.000226  -0.000226  -0.001911   0.000424
    20  F   -0.001279   0.000038  -0.000143  -0.000143   0.000426  -0.000053
              19         20
     1  C    0.056430  -0.211100
     2  C    0.018550   0.101587
     3  C   -0.031475   0.115246
     4  C   -0.001213   0.006018
     5  C    0.004598  -0.006192
     6  C   -0.007670  -0.006867
     7  F    0.019043  -0.005340
     8  H   -0.058371   0.040667
     9  H    0.003725  -0.001120
    10  H   -0.000314   0.000262
    11  H    0.000088  -0.000047
    12  H    0.001414  -0.000213
    13  O    0.008263  -0.001279
    14  C   -0.000357   0.000038
    15  H   -0.000226  -0.000143
    16  H   -0.000226  -0.000143
    17  H   -0.001911   0.000426
    18  F    0.000424  -0.000053
    19  H    0.441726   0.318468
    20  F    0.318468   8.854736
 Mulliken charges:
               1
     1  C    0.424384
     2  C   -0.163833
     3  C   -0.278084
     4  C   -0.192406
     5  C   -0.278098
     6  C   -0.162298
     7  F   -0.237980
     8  H    0.131970
     9  H    0.196345
    10  H    0.173751
    11  H    0.196352
    12  H    0.131977
    13  O   -0.285587
    14  C    0.073009
    15  H    0.111226
    16  H    0.111226
    17  H    0.228964
    18  F   -0.205000
    19  H    0.229034
    20  F   -0.204951
 Sum of Mulliken charges =  -0.00000
 Mulliken charges with hydrogens summed into heavy atoms:
               1
     1  C    0.424384
     2  C   -0.031863
     3  C   -0.081739
     4  C   -0.018655
     5  C   -0.081746
     6  C   -0.030320
     7  F   -0.237980
    13  O   -0.285587
    14  C    0.295460
    18  F    0.023964
    20  F    0.024083
 Electronic spatial extent (au):  <R**2>=           2835.9240
 Charge=             -0.0000 electrons
 Dipole moment (field-independent basis, Debye):
    X=              0.0071    Y=              0.9406    Z=              0.0000  Tot=              0.9406
 Quadrupole moment (field-independent basis, Debye-Ang):
   XX=            -76.6983   YY=            -33.2521   ZZ=            -64.7531
   XY=              0.0445   XZ=              0.0000   YZ=              0.0000
 Traceless Quadrupole moment (field-independent basis, Debye-Ang):
   XX=            -18.4638   YY=             24.9824   ZZ=             -6.5186
   XY=              0.0445   XZ=              0.0000   YZ=              0.0000
 Octapole moment (field-independent basis, Debye-Ang**2):
  XXX=              0.0484  YYY=            139.3742  ZZZ=             -0.0000  XYY=              0.2153
  XXY=            -12.5150  XXZ=              0.0000  XZZ=              0.0053  YZZ=             20.5068
  YYZ=              0.0000  XYZ=              0.0000
 Hexadecapole moment (field-independent basis, Debye-Ang**3):
 XXXX=          -1168.8688 YYYY=          -1601.9132 ZZZZ=            -68.6523 XXXY=             -0.9644
 XXXZ=             -0.0000 YYYX=              0.1175 YYYZ=             -0.0000 ZZZX=              0.0000
 ZZZY=             -0.0000 XXYY=           -542.7321 XXZZ=           -173.0357 YYZZ=           -426.0900
 XXYZ=             -0.0000 YYXZ=              0.0000 ZZXY=             -0.3432
 N-N= 5.893165240168D+02 E-N=-2.705184719118D+03  KE= 6.474323195864D+02
 Symmetry A'   KE= 6.149133360842D+02
 Symmetry A"   KE= 3.251898350225D+01
 Calling FoFJK, ICntrl=      2127 FMM=F ISym2X=1 I1Cent= 0 IOpClX= 0 NMat=1 NMatS=1 NMatT=0.
 ***** Axes restored to original set *****
 -------------------------------------------------------------------
 Center     Atomic                   Forces (Hartrees/Bohr)
 Number     Number              X              Y              Z
 -------------------------------------------------------------------
      1        6          -0.082597433   -0.000000000   -0.047685554
      2        6          -0.053232440    0.000000000    0.014119579
      3        6           0.002934525    0.000000000    0.036582426
      4        6           0.038778553    0.000000000    0.022388815
      5        6           0.033148098    0.000000000   -0.015749749
      6        6          -0.014389036    0.000000000   -0.053161404
      7        9           0.020784650    0.000000000    0.012002044
      8        1          -0.060942971   -0.000000000    0.037773176
      9        1          -0.001887686    0.000000000    0.073775675
     10        1           0.064322636    0.000000000    0.037136751
     11        1           0.062947807    0.000000000   -0.038522626
     12        1           0.002240628    0.000000000   -0.071664658
     13        8           0.011456615    0.000000000    0.006580801
     14        6           0.067003403   -0.000000000    0.039034260
     15        1          -0.039421378    0.072314818   -0.022923319
     16        1          -0.039421378   -0.072314818   -0.022923319
     17        1          -0.023219388   -0.000000000    0.021016533
     18        9           0.016478916    0.000000000   -0.022886944
     19        1           0.006595790    0.000000000   -0.030603040
     20        9          -0.011579909   -0.000000000    0.025710553
 -------------------------------------------------------------------
 Cartesian Forces:  Max     0.082597433 RMS     0.034516991
 -----------------------------------------------------------------------------------------------
                       Internal Coordinate Forces (Hartree/Bohr or radian)
  Cent   Atom   N1       Length/X         N2         Alpha/Y        N3         Beta/Z          J
 -----------------------------------------------------------------------------------------------
      1  C 
      2  C        1   0.044171(     1)
      3  C        2   0.159781(     2)      1   0.183709(    20)
      4  C        3   0.221775(     3)      2   0.436474(    21)      1   0.000000(    38)     0
      5  C        4   0.177606(     4)      3   0.453309(    22)      2   0.000000(    39)     0
      6  C        5   0.071441(     5)      4   0.244963(    23)      3   0.000000(    40)     0
      7  F        1  -0.010019(     6)      2   0.000001(    24)      3  -0.000000(    41)     0
      8  H        2   0.071665(     7)      3  -0.004235(    25)      4  -0.000000(    42)     0
      9  H        3   0.073776(     8)      4   0.003567(    26)      5   0.000000(    43)     0
     10  H        4   0.074273(     9)      5   0.000000(    27)      6   0.000000(    44)     0
     11  H        5   0.073776(    10)      6  -0.003567(    28)      1   0.000000(    45)     0
     12  H        6   0.071665(    11)      1   0.004234(    29)      2   0.000000(    46)     0
     13  O        7   0.000447(    12)      1  -0.000043(    30)      3   0.000000(    47)     0
     14  C       13   0.013659(    13)      1   0.000106(    31)      2   0.000000(    48)     0
     15  H       14   0.085427(    14)      1   0.006302(    32)      2   0.000116(    49)     0
     16  H       14   0.085427(    15)      1   0.006302(    33)      2  -0.000116(    50)     0
     17  H        7  -0.000548(    16)      1   0.033861(    34)      2   0.000000(    51)     0
     18  F       17   0.028125(    17)      7   0.003551(    35)      1   0.000000(    52)     0
     19  H        7  -0.000544(    18)      1   0.033815(    36)      2  -0.000000(    53)     0
     20  F       19   0.028121(    19)      7   0.003551(    37)      1  -0.000000(    54)     0
 -----------------------------------------------------------------------------------------------
 Internal  Forces:  Max     0.453309331 RMS     0.109600490

 GradGradGradGradGradGradGradGradGradGradGradGradGradGradGradGradGradGrad
 Berny optimization.
 Search for a local minimum.
 Step number   1 out of a maximum of   29
 All quantities printed in internal units (Hartrees-Bohrs-Radians)
 Second derivative matrix not updated -- first step.
 The second derivative matrix:
                          d1        d2        d3        d4        d5
           d1           0.95300
           d2          -0.05489   0.95300
           d3          -0.33597   0.33597   1.34386
           d4          -0.28107   0.05489   0.33597   0.95300
           d5           0.05489  -0.28107  -0.33597  -0.05489   0.95300
           d6          -0.00000  -0.00000   0.00000   0.00000   0.00000
           d7           0.00000   0.00000  -0.00000  -0.00000  -0.00000
           d8          -0.00000  -0.00000   0.00000   0.00000   0.00000
           d9           0.00000   0.00000   0.00000  -0.00000  -0.00000
           d10         -0.00000  -0.00000  -0.00000   0.00000   0.00000
           d11          0.00000  -0.00000  -0.00000  -0.00000  -0.00000
           d12         -0.00000  -0.00000  -0.00000   0.00000   0.00000
           d13         -0.00000  -0.00000  -0.00000   0.00000   0.00000
           d14          0.00000   0.00000  -0.00000  -0.00000  -0.00000
           d15         -0.00000  -0.00000  -0.00000   0.00000   0.00000
           d16         -0.00000  -0.00000  -0.00000   0.00000   0.00000
           d17         -0.00000  -0.00000  -0.00000   0.00000   0.00000
           d18         -0.00000  -0.00000   0.00000   0.00000   0.00000
           d19         -0.00000  -0.00000   0.00000   0.00000   0.00000
                          d6        d7        d8        d9        d10
           d6           0.45621
           d7           0.00000   0.47688
           d8           0.00000   0.00000   0.47688
           d9          -0.00000  -0.00000   0.00000   0.47688
           d10         -0.00000  -0.00000  -0.00000   0.00000   0.47688
           d11         -0.00000  -0.00000   0.00000   0.00000   0.00000
           d12         -0.00000   0.00000   0.00000  -0.00000  -0.00000
           d13         -0.00000   0.00000   0.00000  -0.00000  -0.00000
           d14          0.00000  -0.00000  -0.00000  -0.00000   0.00000
           d15         -0.00000   0.00000   0.00000  -0.00000  -0.00000
           d16          0.00000   0.00000   0.00000  -0.00000  -0.00000
           d17          0.00000   0.00000   0.00000  -0.00000  -0.00000
           d18         -0.00000   0.00000   0.00000  -0.00000  -0.00000
           d19          0.00000   0.00000   0.00000  -0.00000  -0.00000
                          d11       d12       d13       d14       d15
           d11          0.47688
           d12         -0.00000   0.02330
           d13         -0.00000  -0.00000   1.04823
           d14          0.00000   0.00000   0.00000   0.47688
           d15         -0.00000  -0.00000  -0.00000  -0.00000   0.47688
           d16         -0.00000  -0.00000  -0.00000   0.00000   0.00000
           d17         -0.00000   0.00000   0.00000   0.00000   0.00000
           d18         -0.00000   0.00000   0.00000  -0.00000  -0.00000
           d19         -0.00000  -0.00000   0.00000  -0.00000  -0.00000
                          d16       d17       d18       d19
           d16          0.02721
           d17         -0.00000   0.70673
           d18          0.00000   0.00000   0.02721
           d19          0.00000   0.00000  -0.00000   0.70673
 ITU=  0
     Eigenvalues ---    0.02330   0.02721   0.02721   0.45621   0.47688
     Eigenvalues ---    0.47688   0.47688   0.47688   0.47688   0.47688
     Eigenvalues ---    0.47688   0.67193   0.67193   0.67193   0.70673
     Eigenvalues ---    0.70673   1.04823   1.12429   2.01579
 RFO step:  Lambda=-1.61547669D-01 EMin= 2.33007068D-02
 Linear search not attempted -- first point.
 Maximum step size (   0.300) exceeded in Quadratic search.
    -- Step size scaled by   0.673
 Variable       Old X    -DE/DX   Delta X   Delta X   Delta X     New X
                                 (Linear)    (Quad)   (Total)
    d1        2.45664   0.04417   0.00000   0.08036   0.08036   2.53701
    d2        2.45664   0.15978   0.00000   0.09083   0.09083   2.54747
    d3        2.45664   0.22178   0.00000   0.09624   0.09624   2.55288
    d4        2.45664   0.17761   0.00000   0.09882   0.09882   2.55546
    d5        2.45664   0.07144   0.00000   0.09599   0.09599   2.55263
    d6        2.64562  -0.01002   0.00000  -0.01092  -0.01092   2.63470
    d7        1.88973   0.07166   0.00000   0.07559   0.07559   1.96532
    d8        1.88973   0.07378   0.00000   0.07782   0.07782   1.96754
    d9        1.88973   0.07427   0.00000   0.07834   0.07834   1.96807
   d10        1.88973   0.07378   0.00000   0.07782   0.07782   1.96754
   d11        1.88973   0.07166   0.00000   0.07559   0.07559   1.96532
   d12        5.29123   0.00045   0.00000   0.00163   0.00163   5.29286
   d13        2.26767   0.01366   0.00000   0.00760   0.00760   2.27527
   d14        1.88973   0.08543   0.00000   0.09011   0.09011   1.97983
   d15        1.88973   0.08543   0.00000   0.09011   0.09011   1.97983
   d16        4.34637  -0.00055   0.00000  -0.00195  -0.00195   4.34442
   d17        1.70075   0.02812   0.00000   0.02181   0.02181   1.72257
   d18        4.34637  -0.00054   0.00000  -0.00194  -0.00194   4.34443
   d19        1.70075   0.02812   0.00000   0.02181   0.02181   1.72256
         Item               Value     Threshold  Converged?
 Maximum Force            0.221775     0.000450     NO 
 RMS     Force            0.090743     0.000300     NO 
 Maximum Displacement     0.098818     0.001800     NO 
 RMS     Displacement     0.068825     0.001200     NO 
 Predicted change in Energy=-7.942733D-02
 GradGradGradGradGradGradGradGradGradGradGradGradGradGradGradGradGradGrad

 ---------------------------------------------------------------------------------------------------
                            Z-MATRIX (ANGSTROMS AND DEGREES)
   CD    Cent   Atom    N1       Length/X        N2       Alpha/Y        N3        Beta/Z          J
 ---------------------------------------------------------------------------------------------------
      1      1  C 
      2      2  C        1   1.342526(     1)
      3      3  C        2   1.348063(     2)      1  120.000(    20)
      4      4  C        3   1.350926(     3)      2  120.000(    21)      1    0.000(    38)      0
      5      5  C        4   1.352292(     4)      3  120.000(    22)      2    0.000(    39)      0
      6      6  C        5   1.350794(     5)      4  120.000(    23)      3    0.000(    40)      0
      7      7  F        1   1.394221(     6)      2  120.000(    24)      3  180.000(    41)      0
      8      8  H        2   1.040000(     7)      3  120.000(    25)      4  180.000(    42)      0
      9      9  H        3   1.041179(     8)      4  120.000(    26)      5  180.000(    43)      0
     10     10  H        4   1.041456(     9)      5  120.000(    27)      6  180.000(    44)      0
     11     11  H        5   1.041179(    10)      6  120.000(    28)      1  180.000(    45)      0
     12     12  H        6   1.040000(    11)      1  120.000(    29)      2  180.000(    46)      0
     13     13  O        7   2.800862(    12)      1  179.900(    30)      3  180.000(    47)      0
     14     14  C       13   1.204023(    13)      1  179.900(    31)      2  180.000(    48)      0
     15     15  H       14   1.047682(    14)      1  120.000(    32)      2   90.000(    49)      0
     16     16  H       14   1.047682(    15)      1  120.000(    33)      2  -90.000(    50)      0
     17     17  H        7   2.298966(    16)      1  100.000(    34)      2  180.000(    51)      0
     18     18  F       17   0.911543(    17)      7  160.000(    35)      1    0.000(    52)      0
     19     19  H        7   2.298973(    18)      1  100.000(    36)      2    0.000(    53)      0
     20     20  F       19   0.911541(    19)      7  160.000(    37)      1    0.000(    54)      0
 ---------------------------------------------------------------------------------------------------
                         Z-Matrix orientation:                         
 ---------------------------------------------------------------------
 Center     Atomic      Atomic             Coordinates (Angstroms)
 Number     Number       Type             X           Y           Z
 ---------------------------------------------------------------------
      1          6           0        0.000000    0.000000    0.000000
      2          6           0        0.000000    0.000000    1.342526
      3          6           0        1.167457    0.000000    2.016557
      4          6           0        2.337393    0.000000    1.341094
      5          6           0        2.337393    0.000000   -0.011198
      6          6           0        1.167571    0.000000   -0.686595
      7          9           0       -1.207431   -0.000000   -0.697110
      8          1           0       -0.900667   -0.000000    1.862526
      9          1           0        1.167457   -0.000000    3.057736
     10          1           0        3.239321   -0.000000    1.861822
     11          1           0        3.239080   -0.000000   -0.531787
     12          1           0        1.159261   -0.000000   -1.726562
     13          8           0       -3.630601   -0.000000   -2.101773
     14          6           0       -4.671559   -0.000000   -2.706817
     15          1           0       -5.124811    0.907319   -2.969442
     16          1           0       -5.124811   -0.907319   -2.969442
     17          1           0       -0.421138    0.000000   -2.857432
     18          9           0        0.164790    0.000000   -3.555714
     19          1           0       -2.685182   -0.000000    1.064005
     20          9           0       -2.996947   -0.000000    1.920573
 ---------------------------------------------------------------------
                    Distance matrix (angstroms):
                    1          2          3          4          5
     1  C    0.000000
     2  C    1.342526   0.000000
     3  C    2.330120   1.348063   0.000000
     4  C    2.694799   2.337394   1.350926   0.000000
     5  C    2.337420   2.701106   2.341056   1.352292   0.000000
     6  C    1.354487   2.341059   2.703153   2.340941   1.350794
     7  F    1.394221   2.370233   3.606117   4.089016   3.610575
     8  H    2.068866   1.040000   2.073851   3.279775   3.741106
     9  H    3.273027   2.074825   1.041179   2.077405   3.284373
    10  H    3.736252   3.280681   2.077634   1.041456   2.078865
    11  H    3.282444   3.742284   3.284157   2.078635   1.041179
    12  H    2.079640   3.280730   3.743129   3.286109   2.080978
    13  O    4.195082   5.004444   6.323132   6.889868   6.323563
    14  C    5.399104   6.182284   7.510284   8.093886   7.509445
    15  H    5.992037   6.758697   8.079360   8.665359   8.078300
    16  H    5.992037   6.758697   8.079360   8.665359   8.078300
    17  H    2.888299   4.221019   5.126344   5.023656   3.963652
    18  F    3.559530   4.901011   5.661762   5.357139   4.157379
    19  H    2.888305   2.699588   3.968650   5.030213   5.136372
    20  F    3.559536   3.052185   4.165510   5.365723   5.673352
                    6          7          8          9         10
     6  C    0.000000
     7  F    2.375025   0.000000
     8  H    3.282625   2.577953   0.000000
     9  H    3.744331   4.442855   2.388652   0.000000
    10  H    3.284293   5.130471   4.139988   2.392244   0.000000
    11  H    2.077286   4.449583   4.782284   4.144430   2.393610
    12  H    1.040000   2.580891   4.138219   4.784305   4.147668
    13  O    5.002518   2.800862   4.813336   7.045700   7.931325
    14  C    6.178733   4.004885   5.924401   8.205131   9.135343
    15  H    6.754901   4.618721   6.481863   8.760293   9.701703
    16  H    6.754901   4.618721   6.481863   8.760293   9.701703
    17  H    2.690080   2.298966   4.744255   6.124773   5.972463
    18  F    3.039311   3.170900   5.522004   6.689025   6.229160
    19  H    4.231821   2.298973   1.955027   4.337947   5.977980
    20  F    4.913302   3.170905   2.097084   4.316874   6.236545
                   11         12         13         14         15
    11  H    0.000000
    12  H    2.398569   0.000000
    13  O    7.046799   4.804535   0.000000
    14  C    8.204204   5.912644   1.204023   0.000000
    15  H    8.758999   6.469740   1.951600   1.047682   0.000000
    16  H    8.758999   6.469740   1.951600   1.047682   1.814638
    17  H    4.336568   1.943329   3.297222   4.253088   4.791692
    18  F    4.312237   2.082011   4.064349   4.910285   5.398780
    19  H    6.135425   4.750474   3.303932   4.262017   4.800387
    20  F    6.700904   5.529526   4.071951   4.921084   5.409555
                   16         17         18         19         20
    16  H    0.000000
    17  H    4.791692   0.000000
    18  F    5.398780   0.911543   0.000000
    19  H    4.800387   4.528086   5.428088   0.000000
    20  F    5.409555   5.428087   6.323472   0.911541   0.000000
 Stoichiometry    C7H9F3O
 Framework group  CS[SG(C7H7F3O),X(H2)]
 Deg. of freedom    36
 Full point group                 CS      NOp   2
 Largest Abelian subgroup         CS      NOp   2
 Largest concise Abelian subgroup CS      NOp   2
                         Standard orientation:                         
 ---------------------------------------------------------------------
 Center     Atomic      Atomic             Coordinates (Angstroms)
 Number     Number       Type             X           Y           Z
 ---------------------------------------------------------------------
      1          6           0       -0.004358   -0.765465    0.000000
      2          6           0       -1.167020   -1.436728    0.000000
      3          6           0       -1.167020   -2.784791    0.000000
      4          6           0        0.002917   -3.460254    0.000000
      5          6           0        1.174036   -2.784108    0.000000
      6          6           0        1.174036   -1.433314    0.000000
      7          9           0       -0.004358    0.628756   -0.000000
      8          1           0       -2.067687   -0.916728   -0.000000
      9          1           0       -2.068707   -3.305380    0.000000
     10          1           0        0.002917   -4.501711    0.000000
     11          1           0        2.075723   -3.304697    0.000000
     12          1           0        2.070519   -0.906134    0.000000
     13          8           0        0.000530    3.429614   -0.000000
     14          6           0        0.004034    4.633632   -0.000000
     15          1           0        0.004849    5.157472    0.907319
     16          1           0        0.004849    5.157472   -0.907319
     17          1           0        2.259681    1.027967    0.000000
     18          9           0        3.157375    0.869679    0.000000
     19          1           0       -2.268405    1.027968   -0.000000
     20          9           0       -3.166097    0.869681   -0.000000
 ---------------------------------------------------------------------
 Rotational constants (GHZ):           1.0642186           0.5211639           0.3506469
 Standard basis: 6-311++G(d,p) (5D, 7F)
 There are   236 symmetry adapted cartesian basis functions of A'  symmetry.
 There are    80 symmetry adapted cartesian basis functions of A"  symmetry.
 There are   225 symmetry adapted basis functions of A'  symmetry.
 There are    80 symmetry adapted basis functions of A"  symmetry.
   305 basis functions,   477 primitive gaussians,   316 cartesian basis functions
    43 alpha electrons       43 beta electrons
       nuclear repulsion energy       578.7993774874 Hartrees.
 NAtoms=   20 NActive=   20 NUniq=   19 SFac= 1.11D+00 NAtFMM=   60 NAOKFM=F Big=F
 Integral buffers will be    131072 words long.
 Raffenetti 2 integral format.
 Two-electron integral symmetry is turned on.
 One-electron integrals computed using PRISM.
 NBasis=   305 RedAO= T EigKep=  3.90D-06  NBF=   225    80
 NBsUse=   304 1.00D-06 EigRej=  6.03D-07 NBFU=   224    80
 Initial guess from the checkpoint file:  "model_H2b.chk"
 B after Tr=    -0.000000    0.000000   -0.000000
         Rot=    1.000000    0.000000   -0.000000   -0.000450 Ang=  -0.05 deg.
 Initial guess orbital symmetries:
       Occupied  (A') (A') (A') (A') (A') (A') (A') (A') (A') (A')
                 (A') (A') (A') (A') (A') (A') (A') (A') (A') (A')
                 (A') (A') (A') (A') (A") (A') (A') (A") (A') (A')
                 (A') (A') (A") (A") (A') (A') (A') (A") (A') (A')
                 (A") (A") (A")
       Virtual   (A') (A') (A') (A') (A') (A") (A") (A") (A') (A')
                 (A') (A') (A") (A') (A") (A") (A') (A') (A') (A")
                 (A') (A') (A') (A') (A') (A") (A') (A") (A') (A')
                 (A') (A") (A') (A') (A') (A') (A') (A') (A') (A')
                 (A") (A') (A") (A') (A") (A') (A") (A') (A') (A')
                 (A') (A') (A") (A') (A') (A') (A') (A') (A") (A')
                 (A') (A') (A') (A') (A') (A') (A') (A') (A') (A")
                 (A') (A') (A") (A') (A") (A') (A') (A') (A") (A')
                 (A') (A') (A") (A') (A") (A') (A') (A') (A') (A")
                 (A") (A') (A') (A') (A') (A') (A') (A') (A') (A')
                 (A') (A') (A") (A') (A') (A') (A') (A") (A") (A')
                 (A') (A') (A") (A') (A") (A") (A") (A') (A") (A')
                 (A") (A") (A') (A') (A') (A') (A") (A") (A') (A')
                 (A") (A') (A") (A') (A') (A') (A') (A') (A') (A')
                 (A') (A") (A") (A") (A") (A') (A') (A') (A') (A")
                 (A') (A") (A') (A') (A') (A") (A') (A') (A') (A")
                 (A') (A") (A') (A') (A") (A') (A') (A') (A') (A')
                 (A") (A') (A') (A") (A') (A") (A') (A') (A") (A')
                 (A') (A') (A') (A') (A") (A') (A') (A") (A') (A')
                 (A') (A') (A") (A') (A") (A') (A') (A") (A") (A")
                 (A') (A') (A') (A") (A') (A') (A') (A') (A') (A")
                 (A') (A') (A') (A') (A') (A") (A") (A") (A') (A')
                 (A') (A") (A") (A') (A') (A') (A") (A") (A') (A')
                 (A') (A') (A') (A') (A') (A') (A') (A') (A') (A")
                 (A') (A") (A") (A") (A') (A') (A') (A') (A') (A')
                 (A') (A') (A') (A') (A') (A') (A') (A') (A') (A')
                 (A')
 ExpMin= 3.60D-02 ExpMax= 1.14D+04 ExpMxC= 1.72D+03 IAcc=3 IRadAn=         5 AccDes= 0.00D+00
 Harris functional with IExCor= 1009 and IRadAn=       5 diagonalized for initial guess.
 HarFok:  IExCor= 1009 AccDes= 0.00D+00 IRadAn=         5 IDoV= 1 UseB2=F ITyADJ=14
 ICtDFT=  3500011 ScaDFX=  1.000000  1.000000  1.000000  1.000000
 FoFCou: FMM=F IPFlag=           0 FMFlag=      100000 FMFlg1=           0
         NFxFlg=           0 DoJE=T BraDBF=F KetDBF=T FulRan=T
         wScrn=  0.000000 ICntrl=       500 IOpCl=  0 I1Cent=   200000004 NGrid=           0
         NMat0=    1 NMatS0=      1 NMatT0=    0 NMatD0=    1 NMtDS0=    0 NMtDT0=    0
 Petite list used in FoFCou.
 Requested convergence on RMS density matrix=1.00D-08 within 128 cycles.
 Requested convergence on MAX density matrix=1.00D-06.
 Requested convergence on             energy=1.00D-06.
 No special actions if energy rises.
 SCF Done:  E(RM062X) =  -646.802846252     A.U. after   12 cycles
            NFock= 12  Conv=0.64D-08     -V/T= 2.0013
 Calling FoFJK, ICntrl=      2127 FMM=F ISym2X=1 I1Cent= 0 IOpClX= 0 NMat=1 NMatS=1 NMatT=0.
 ***** Axes restored to original set *****
 -------------------------------------------------------------------
 Center     Atomic                   Forces (Hartrees/Bohr)
 Number     Number              X              Y              Z
 -------------------------------------------------------------------
      1        6          -0.025155964   -0.000000000   -0.026679727
      2        6          -0.025914209    0.000000000    0.006573345
      3        6           0.006830963    0.000000000    0.007905916
      4        6           0.011683574   -0.000000000    0.006470792
      5        6           0.006485996    0.000000000   -0.000638162
      6        6          -0.012869113   -0.000000000   -0.016583273
      7        9           0.021008422   -0.000000000    0.012561438
      8        1          -0.026150267   -0.000000000    0.018050403
      9        1          -0.001611372   -0.000000000    0.032848565
     10        1           0.028659387    0.000000000    0.016483671
     11        1           0.027653789    0.000000000   -0.017867820
     12        1           0.002825110   -0.000000000   -0.031179773
     13        8           0.000200489   -0.000000000    0.000036520
     14        6           0.039831742    0.000000000    0.023299770
     15        1          -0.020167237    0.032226317   -0.011761594
     16        1          -0.020167237   -0.032226317   -0.011761594
     17        1          -0.013798906    0.000000000    0.009232388
     18        9           0.006337774    0.000000000   -0.011975107
     19        1           0.001208760   -0.000000000   -0.016487120
     20        9          -0.006891701   -0.000000000    0.011471364
 -------------------------------------------------------------------
 Cartesian Forces:  Max     0.039831742 RMS     0.015751149
 -----------------------------------------------------------------------------------------------
                       Internal Coordinate Forces (Hartree/Bohr or radian)
  Cent   Atom   N1       Length/X         N2         Alpha/Y        N3         Beta/Z          J
 -----------------------------------------------------------------------------------------------
      1  C 
      2  C        1   0.024098(     1)
      3  C        2   0.061099(     2)      1   0.050334(    20)
      4  C        3   0.077482(     3)      2   0.146768(    21)      1   0.000000(    38)     0
      5  C        4   0.064234(     4)      3   0.151083(    22)      2  -0.000000(    39)     0
      6  C        5   0.030526(     5)      4   0.086556(    23)      3  -0.000000(    40)     0
      7  F        1  -0.008857(     6)      2  -0.002636(    24)      3  -0.000000(    41)     0
      8  H        2   0.031672(     7)      3  -0.005025(    25)      4  -0.000000(    42)     0
      9  H        3   0.032849(     8)      4   0.003170(    26)      5  -0.000000(    43)     0
     10  H        4   0.033062(     9)      5  -0.000107(    27)      6   0.000000(    44)     0
     11  H        5   0.032883(    10)      6  -0.003241(    28)      1   0.000000(    45)     0
     12  H        6   0.031156(    11)      1   0.006042(    29)      2  -0.000000(    46)     0
     13  O        7   0.000355(    12)      1  -0.000050(    30)      3   0.000000(    47)     0
     14  C       13   0.000547(    13)      1   0.000106(    31)      2   0.000000(    48)     0
     15  H       14   0.039582(    14)      1   0.008128(    32)      2   0.000113(    49)     0
     16  H       14   0.039582(    15)      1   0.008128(    33)      2  -0.000113(    50)     0
     17  H        7   0.000025(    16)      1   0.039431(    34)      2  -0.000000(    51)     0
     18  F       17   0.013247(    17)      7   0.004896(    35)      1  -0.000000(    52)     0
     19  H        7  -0.000189(    18)      1   0.037317(    36)      2   0.000000(    53)     0
     20  F       19   0.013137(    19)      7   0.004397(    37)      1   0.000000(    54)     0
 -----------------------------------------------------------------------------------------------
 Internal  Forces:  Max     0.151082548 RMS     0.038912836

 GradGradGradGradGradGradGradGradGradGradGradGradGradGradGradGradGradGrad
 Berny optimization.
 Search for a local minimum.
 Step number   2 out of a maximum of   29
 All quantities printed in internal units (Hartrees-Bohrs-Radians)
 Update second derivatives using D2CorN and points    1    2
 DE= -7.53D-02 DEPred=-7.94D-02 R= 9.49D-01
 TightC=F SS=  1.41D+00  RLast= 3.00D-01 DXNew= 5.0454D-01 9.0000D-01
 Trust test= 9.49D-01 RLast= 3.00D-01 DXMaxT set to 5.05D-01
 The second derivative matrix:
                          d1        d2        d3        d4        d5
           d1           0.95596
           d2          -0.05065   0.95881
           d3          -0.32951   0.34434   1.35509
           d4          -0.27491   0.06297   0.34693   0.96369
           d5           0.06037  -0.27381  -0.32592  -0.04514   0.96187
           d6           0.00150   0.00158   0.00141   0.00151   0.00153
           d7           0.00315   0.00441   0.00652   0.00625   0.00559
           d8           0.00314   0.00442   0.00658   0.00631   0.00563
           d9           0.00316   0.00445   0.00663   0.00635   0.00567
           d10          0.00312   0.00440   0.00656   0.00629   0.00561
           d11          0.00338   0.00467   0.00679   0.00654   0.00587
           d12          0.00005   0.00008   0.00012   0.00012   0.00010
           d13          0.00244   0.00284   0.00319   0.00323   0.00309
           d14          0.00294   0.00433   0.00679   0.00645   0.00569
           d15          0.00294   0.00433   0.00679   0.00645   0.00569
           d16         -0.00027  -0.00032  -0.00039  -0.00039  -0.00037
           d17          0.00016   0.00043   0.00098   0.00088   0.00072
           d18         -0.00017  -0.00021  -0.00027  -0.00027  -0.00025
           d19          0.00021   0.00048   0.00104   0.00094   0.00078
                          d6        d7        d8        d9        d10
           d6           0.45574
           d7           0.00137   0.48020
           d8           0.00142   0.00331   0.48018
           d9           0.00143   0.00333   0.00333   0.48024
           d10          0.00142   0.00329   0.00329   0.00331   0.48015
           d11          0.00133   0.00353   0.00353   0.00356   0.00352
           d12          0.00003   0.00006   0.00006   0.00006   0.00006
           d13         -0.00015   0.00233   0.00238   0.00240   0.00238
           d14          0.00174   0.00318   0.00315   0.00318   0.00314
           d15          0.00174   0.00318   0.00315   0.00318   0.00314
           d16         -0.00001  -0.00026  -0.00027  -0.00027  -0.00027
           d17          0.00050   0.00025   0.00023   0.00023   0.00023
           d18         -0.00002  -0.00017  -0.00017  -0.00017  -0.00017
           d19          0.00049   0.00030   0.00028   0.00028   0.00027
                          d11       d12       d13       d14       d15
           d11          0.48063
           d12          0.00006   0.02330
           d13          0.00235   0.00005   1.04867
           d14          0.00344   0.00005   0.00270   0.47976
           d15          0.00344   0.00005   0.00270   0.00288   0.47976
           d16         -0.00027  -0.00001  -0.00008  -0.00029  -0.00029
           d17          0.00031   0.00000   0.00060   0.00008   0.00008
           d18         -0.00017  -0.00000  -0.00007  -0.00018  -0.00018
           d19          0.00036   0.00000   0.00060   0.00013   0.00013
                          d16       d17       d18       d19
           d16          0.02722
           d17         -0.00006   0.70660
           d18          0.00001  -0.00003   0.02721
           d19         -0.00006  -0.00012  -0.00003   0.70662
 ITU=  1  0
     Eigenvalues ---    0.02330   0.02721   0.02722   0.45537   0.47662
     Eigenvalues ---    0.47688   0.47688   0.47688   0.47688   0.47688
     Eigenvalues ---    0.49622   0.67187   0.67193   0.70495   0.70672
     Eigenvalues ---    0.70876   1.04885   1.12502   2.02324
 RFO step:  Lambda=-2.62613538D-03 EMin= 2.33015696D-02
 Quartic linear search produced a step of  0.88083.
 Variable       Old X    -DE/DX   Delta X   Delta X   Delta X     New X
                                 (Linear)    (Quad)   (Total)
    d1        2.53701   0.02410   0.07079   0.00612   0.07690   2.61391
    d2        2.54747   0.06110   0.08000  -0.00651   0.07350   2.62097
    d3        2.55288   0.07748   0.08477  -0.02154   0.06323   2.61612
    d4        2.55546   0.06423   0.08704  -0.01403   0.07301   2.62847
    d5        2.55263   0.03053   0.08455  -0.00308   0.08147   2.63410
    d6        2.63470  -0.00886  -0.00962  -0.02059  -0.03021   2.60448
    d7        1.96532   0.03167   0.06658   0.01370   0.08028   2.04560
    d8        1.96754   0.03285   0.06854   0.01508   0.08362   2.05116
    d9        1.96807   0.03306   0.06901   0.01514   0.08415   2.05222
   d10        1.96754   0.03288   0.06854   0.01521   0.08376   2.05130
   d11        1.96532   0.03116   0.06658   0.01164   0.07822   2.04354
   d12        5.29286   0.00036   0.00144   0.01903   0.02047   5.31333
   d13        2.27527   0.00055   0.00670  -0.00966  -0.00296   2.27231
   d14        1.97983   0.03958   0.07937   0.02363   0.10300   2.08283
   d15        1.97983   0.03958   0.07937   0.02363   0.10300   2.08283
   d16        4.34442   0.00003  -0.00172   0.00949   0.00777   4.35218
   d17        1.72257   0.01325   0.01921   0.00440   0.02361   1.74618
   d18        4.34443  -0.00019  -0.00171  -0.00436  -0.00607   4.33836
   d19        1.72256   0.01314   0.01921   0.00411   0.02332   1.74588
         Item               Value     Threshold  Converged?
 Maximum Force            0.077482     0.000450     NO 
 RMS     Force            0.035661     0.000300     NO 
 Maximum Displacement     0.102999     0.001800     NO 
 RMS     Displacement     0.066764     0.001200     NO 
 Predicted change in Energy=-1.449222D-02
 GradGradGradGradGradGradGradGradGradGradGradGradGradGradGradGradGradGrad

 ---------------------------------------------------------------------------------------------------
                            Z-MATRIX (ANGSTROMS AND DEGREES)
   CD    Cent   Atom    N1       Length/X        N2       Alpha/Y        N3        Beta/Z          J
 ---------------------------------------------------------------------------------------------------
      1      1  C 
      2      2  C        1   1.383221(     1)
      3      3  C        2   1.386955(     2)      1  120.000(    20)
      4      4  C        3   1.384388(     3)      2  120.000(    21)      1    0.000(    38)      0
      5      5  C        4   1.390928(     4)      3  120.000(    22)      2    0.000(    39)      0
      6      6  C        5   1.393907(     5)      4  120.000(    23)      3    0.000(    40)      0
      7      7  F        1   1.378234(     6)      2  120.000(    24)      3  180.000(    41)      0
      8      8  H        2   1.082483(     7)      3  120.000(    25)      4  180.000(    42)      0
      9      9  H        3   1.085428(     8)      4  120.000(    26)      5  180.000(    43)      0
     10     10  H        4   1.085986(     9)      5  120.000(    27)      6  180.000(    44)      0
     11     11  H        5   1.085500(    10)      6  120.000(    28)      1  180.000(    45)      0
     12     12  H        6   1.081393(    11)      1  120.000(    29)      2  180.000(    46)      0
     13     13  O        7   2.811693(    12)      1  179.900(    30)      3  180.000(    47)      0
     14     14  C       13   1.202457(    13)      1  179.900(    31)      2  180.000(    48)      0
     15     15  H       14   1.102187(    14)      1  120.000(    32)      2   90.000(    49)      0
     16     16  H       14   1.102187(    15)      1  120.000(    33)      2  -90.000(    50)      0
     17     17  H        7   2.303076(    16)      1  100.000(    34)      2  180.000(    51)      0
     18     18  F       17   0.924039(    17)      7  160.000(    35)      1    0.000(    52)      0
     19     19  H        7   2.295763(    18)      1  100.000(    36)      2    0.000(    53)      0
     20     20  F       19   0.923880(    19)      7  160.000(    37)      1    0.000(    54)      0
 ---------------------------------------------------------------------------------------------------
                         Z-Matrix orientation:                         
 ---------------------------------------------------------------------
 Center     Atomic      Atomic             Coordinates (Angstroms)
 Number     Number       Type             X           Y           Z
 ---------------------------------------------------------------------
      1          6           0        0.000000    0.000000    0.000000
      2          6           0        0.000000    0.000000    1.383221
      3          6           0        1.201138    0.000000    2.076699
      4          6           0        2.400054    0.000000    1.384504
      5          6           0        2.400054    0.000000   -0.006424
      6          6           0        1.192895    0.000000   -0.703377
      7          9           0       -1.193585   -0.000000   -0.689117
      8          1           0       -0.937458   -0.000000    1.924463
      9          1           0        1.201138   -0.000000    3.162126
     10          1           0        3.340545   -0.000000    1.927497
     11          1           0        3.340125   -0.000000   -0.549174
     12          1           0        1.182982   -0.000000   -1.784725
     13          8           0       -3.626125   -0.000000   -2.099211
     14          6           0       -4.665725   -0.000000   -2.703474
     15          1           0       -5.142556    0.954522   -2.979765
     16          1           0       -5.142556   -0.954522   -2.979765
     17          1           0       -0.405887    0.000000   -2.853301
     18          9           0        0.188074    0.000000   -3.561155
     19          1           0       -2.669273   -0.000000    1.069540
     20          9           0       -2.985259   -0.000000    1.937703
 ---------------------------------------------------------------------
                    Distance matrix (angstroms):
                    1          2          3          4          5
     1  C    0.000000
     2  C    1.383221   0.000000
     3  C    2.399044   1.386955   0.000000
     4  C    2.770760   2.400054   1.384388   0.000000
     5  C    2.400062   2.773332   2.403497   1.390928   0.000000
     6  C    1.384825   2.403517   2.780088   2.411738   1.393907
     7  F    1.378234   2.391491   3.658475   4.148994   3.657911
     8  H    2.140650   1.082483   2.144008   3.380908   3.855815
     9  H    3.382569   2.146448   1.085428   2.144141   3.387788
    10  H    3.856746   3.384594   2.144603   1.085986   2.150483
    11  H    3.384970   3.858832   3.386808   2.150080   1.085500
    12  H    2.141189   3.381616   3.861466   3.394890   2.154905
    13  O    4.189925   5.027536   6.382844   6.960683   6.379231
    14  C    5.392380   6.202424   7.567704   8.163137   7.563023
    15  H    6.019634   6.811214   8.168316   8.766351   8.163506
    16  H    6.019634   6.811214   8.168316   8.766351   8.163506
    17  H    2.882025   4.255920   5.185308   5.082548   3.997250
    18  F    3.566118   4.947952   5.728149   5.417786   4.186761
    19  H    2.875576   2.687641   3.999307   5.079103   5.182256
    20  F    3.558998   3.036317   4.188704   5.413652   5.725489
                    6          7          8          9         10
     6  C    0.000000
     7  F    2.386523   0.000000
     8  H    3.382890   2.626100   0.000000
     9  H    3.865512   4.535061   2.470912   0.000000
    10  H    3.396160   5.234979   4.278004   2.470095   0.000000
    11  H    2.152759   4.535869   4.941315   4.283575   2.476671
    12  H    1.081393   2.616950   4.272509   4.946884   4.293678
    13  O    5.017102   2.811693   4.839306   7.140318   8.046669
    14  C    6.190624   4.014149   5.942876   8.296105   9.249122
    15  H    6.799338   4.663963   6.530345   8.881238   9.846590
    16  H    6.799338   4.663963   6.530345   8.881238   9.846590
    17  H    2.679230   2.303076   4.807243   6.226387   6.073861
    18  F    3.029284   3.187097   5.599895   6.799178   6.329564
    19  H    4.249657   2.295763   1.931341   4.399887   6.070751
    20  F    4.942902   3.179666   2.047844   4.361781   6.325813
                   11         12         13         14         15
    11  H    0.000000
    12  H    2.485930   0.000000
    13  O    7.136613   4.819379   0.000000
    14  C    8.290636   5.920429   1.202457   0.000000
    15  H    8.875514   6.507815   1.996509   1.102187   0.000000
    16  H    8.875514   6.507815   1.996509   1.102187   1.909043
    17  H    4.397909   1.914774   3.307353   4.262473   4.833543
    18  F    4.359754   2.036062   4.084776   4.928994   5.446534
    19  H    6.223592   4.794445   3.310067   4.268659   4.839949
    20  F    6.796693   5.588444   4.087467   4.936040   5.454038
                   16         17         18         19         20
    16  H    0.000000
    17  H    4.833543   0.000000
    18  F    5.446534   0.924039   0.000000
    19  H    4.839949   4.528973   5.441302   0.000000
    20  F    5.454038   5.441220   6.348818   0.923880   0.000000
 Stoichiometry    C7H9F3O
 Framework group  CS[SG(C7H7F3O),X(H2)]
 Deg. of freedom    36
 Full point group                 CS      NOp   2
 Largest Abelian subgroup         CS      NOp   2
 Largest concise Abelian subgroup CS      NOp   2
                         Standard orientation:                         
 ---------------------------------------------------------------------
 Center     Atomic      Atomic             Coordinates (Angstroms)
 Number     Number       Type             X           Y           Z
 ---------------------------------------------------------------------
      1          6           0       -0.003378   -0.740266    0.000000
      2          6           0       -1.201283   -1.431876    0.000000
      3          6           0       -1.201283   -2.818831    0.000000
      4          6           0       -0.002367   -3.511025    0.000000
      5          6           0        1.202212   -2.815561    0.000000
      6          6           0        1.202212   -1.421655   -0.000000
      7          9           0       -0.003378    0.637968   -0.000000
[...]
    17  H    2.728505   2.398694   4.896463   6.298249   6.117270
    18  F    3.098258   3.280130   5.689149   6.875568   6.383327
    19  H    4.316277   2.369850   1.945757   4.407947   6.104276
    20  F    5.012163   3.251567   2.092957   4.385155   6.367950
                   11         12         13         14         15
    11  H    0.000000
    12  H    2.482119   0.000000
    13  O    7.190124   4.873599   0.000000
    14  C    8.342563   5.974529   1.200094   0.000000
    15  H    8.927903   6.562472   1.995235   1.103125   0.000000
    16  H    8.927903   6.562472   1.995235   1.103125   1.910668
    17  H    4.412195   1.937778   3.405154   4.349344   4.915710
    18  F    4.393217   2.096635   4.184682   5.021067   5.534757
    19  H    6.280030   4.866426   3.396091   4.347431   4.915405
    20  F    6.856625   5.660217   4.173639   5.017633   5.533161
                   16         17         18         19         20
    16  H    0.000000
    17  H    4.915710   0.000000
    18  F    5.534757   0.921842   0.000000
    19  H    4.915405   4.696102   5.606081   0.000000
    20  F    5.533161   5.606516   6.511924   0.921993   0.000000
 Stoichiometry    C7H9F3O
 Framework group  CS[SG(C7H7F3O),X(H2)]
 Deg. of freedom    36
 Full point group                 CS      NOp   2
 Largest Abelian subgroup         CS      NOp   2
 Largest concise Abelian subgroup CS      NOp   2
                         Standard orientation:                         
 ---------------------------------------------------------------------
 Center     Atomic      Atomic             Coordinates (Angstroms)
 Number     Number       Type             X           Y           Z
 ---------------------------------------------------------------------
      1          6           0       -0.006318   -0.751260   -0.000000
      2          6           0       -1.204644   -1.443114   -0.000000
      3          6           0       -1.204644   -2.830110   -0.000000
      4          6           0       -0.003007   -3.523875   -0.000000
      5          6           0        1.201455   -2.828479    0.000000
      6          6           0        1.201455   -1.435117    0.000000
      7          9           0       -0.006318    0.620583   -0.000000
      8          1           0       -2.139639   -0.903294   -0.000000
      9          1           0       -2.142177   -3.371395   -0.000000
     10          1           0       -0.003007   -4.607034   -0.000000
     11          1           0        2.138955   -3.369745    0.000000
     12          1           0        2.131601   -0.887637    0.000000
     13          8           0       -0.001302    3.494451   -0.000000
     14          6           0        0.002210    4.694539    0.000000
     15          1           0        0.003074    5.246101    0.955334
     16          1           0        0.003074    5.246101   -0.955334
     17          1           0        2.355934    1.037112    0.000000
     18          9           0        3.263771    0.877036    0.000000
     19          1           0       -2.340165    1.032103   -0.000000
     20          9           0       -3.248150    0.872001   -0.000000
 ---------------------------------------------------------------------
 Rotational constants (GHZ):           1.0033945           0.5058368           0.3371250

 **********************************************************************

            Population analysis using the SCF Density.

 **********************************************************************

 Orbital symmetries:
       Occupied  (A') (A') (A') (A') (A') (A') (A') (A') (A') (A')
                 (A') (A') (A') (A') (A') (A') (A') (A') (A') (A')
                 (A') (A') (A') (A') (A") (A') (A') (A") (A') (A')
                 (A') (A") (A") (A') (A') (A') (A') (A") (A') (A')
                 (A") (A") (A")
       Virtual   (A') (A') (A') (A") (A") (A') (A') (A") (A') (A')
                 (A') (A') (A") (A') (A") (A') (A") (A') (A') (A")
                 (A') (A') (A') (A') (A') (A") (A") (A') (A') (A")
                 (A') (A') (A') (A') (A') (A') (A') (A') (A') (A')
                 (A") (A") (A') (A') (A") (A') (A') (A") (A') (A')
                 (A') (A') (A') (A") (A') (A') (A') (A') (A') (A')
                 (A") (A') (A') (A') (A') (A') (A') (A') (A') (A')
                 (A') (A") (A') (A") (A') (A') (A') (A') (A") (A')
                 (A") (A') (A') (A') (A") (A") (A') (A') (A') (A")
                 (A") (A') (A') (A') (A') (A') (A') (A') (A') (A')
                 (A') (A') (A') (A') (A') (A') (A") (A") (A") (A')
                 (A') (A') (A") (A") (A') (A") (A") (A') (A") (A')
                 (A") (A") (A') (A') (A') (A') (A") (A') (A") (A")
                 (A') (A') (A') (A") (A') (A') (A') (A') (A') (A')
                 (A") (A") (A') (A") (A') (A") (A') (A') (A') (A")
                 (A') (A') (A") (A') (A') (A") (A') (A") (A") (A')
                 (A') (A') (A') (A") (A') (A') (A') (A") (A') (A')
                 (A') (A') (A') (A") (A') (A") (A") (A') (A') (A')
                 (A") (A') (A') (A') (A') (A') (A') (A') (A") (A')
                 (A') (A') (A') (A') (A') (A") (A") (A') (A') (A")
                 (A") (A") (A') (A') (A") (A') (A') (A') (A') (A')
                 (A') (A') (A') (A") (A') (A") (A') (A") (A") (A")
                 (A') (A') (A') (A') (A') (A") (A') (A") (A") (A')
                 (A') (A') (A') (A') (A') (A') (A') (A') (A') (A")
                 (A') (A") (A") (A") (A') (A') (A') (A') (A') (A')
                 (A') (A') (A') (A') (A') (A') (A') (A') (A') (A')
                 (A')
 The electronic state is 1-A'.
 Alpha  occ. eigenvalues --  -25.27471 -25.23225 -25.23170 -19.65374 -10.64937
 Alpha  occ. eigenvalues --  -10.64341 -10.56260 -10.56155 -10.56032 -10.55907
 Alpha  occ. eigenvalues --  -10.55545  -1.38556  -1.34411  -1.34356  -1.20238
 Alpha  occ. eigenvalues --   -0.98334  -0.86684  -0.86250  -0.73450  -0.72366
 Alpha  occ. eigenvalues --   -0.71534  -0.64383  -0.64105  -0.64073  -0.59456
 Alpha  occ. eigenvalues --   -0.58886  -0.58708  -0.58195  -0.54651  -0.53557
 Alpha  occ. eigenvalues --   -0.53100  -0.51445  -0.51397  -0.50688  -0.50476
 Alpha  occ. eigenvalues --   -0.49257  -0.48644  -0.45049  -0.44205  -0.41837
 Alpha  occ. eigenvalues --   -0.35655  -0.32686  -0.31827
 Alpha virt. eigenvalues --   -0.01931  -0.00605   0.00087   0.00205   0.01234
 Alpha virt. eigenvalues --    0.01354   0.01416   0.02452   0.02831   0.03448
 Alpha virt. eigenvalues --    0.05642   0.05734   0.06389   0.07195   0.08333
 Alpha virt. eigenvalues --    0.08544   0.09265   0.09825   0.10564   0.11323
 Alpha virt. eigenvalues --    0.12061   0.12210   0.12422   0.12891   0.13887
 Alpha virt. eigenvalues --    0.13920   0.13992   0.14262   0.15030   0.15635
 Alpha virt. eigenvalues --    0.15825   0.15861   0.17410   0.18594   0.19225
 Alpha virt. eigenvalues --    0.19513   0.20328   0.20776   0.21255   0.21733
 Alpha virt. eigenvalues --    0.21879   0.22196   0.23923   0.25093   0.25512
 Alpha virt. eigenvalues --    0.26933   0.27883   0.28882   0.29687   0.29838
 Alpha virt. eigenvalues --    0.30375   0.31139   0.31812   0.32188   0.32370
 Alpha virt. eigenvalues --    0.34336   0.35204   0.35740   0.37942   0.38332
 Alpha virt. eigenvalues --    0.38645   0.39761   0.40150   0.40336   0.41608
 Alpha virt. eigenvalues --    0.42889   0.45453   0.48816   0.49462   0.51962
 Alpha virt. eigenvalues --    0.52709   0.53328   0.53398   0.55080   0.55950
 Alpha virt. eigenvalues --    0.57906   0.58089   0.58625   0.59703   0.60798
 Alpha virt. eigenvalues --    0.60872   0.61377   0.62625   0.63893   0.64449
 Alpha virt. eigenvalues --    0.65203   0.65222   0.66431   0.69039   0.69318
 Alpha virt. eigenvalues --    0.71682   0.72266   0.76162   0.77432   0.77666
 Alpha virt. eigenvalues --    0.82783   0.83951   0.84236   0.87410   0.88721
 Alpha virt. eigenvalues --    0.92556   0.93739   0.94435   0.94866   0.98506
 Alpha virt. eigenvalues --    1.01090   1.01512   1.04254   1.05059   1.05810
 Alpha virt. eigenvalues --    1.07405   1.07951   1.12098   1.14609   1.16402
 Alpha virt. eigenvalues --    1.17858   1.20943   1.22005   1.23115   1.30335
 Alpha virt. eigenvalues --    1.31751   1.32007   1.33151   1.36536   1.40036
 Alpha virt. eigenvalues --    1.40171   1.42986   1.43192   1.43848   1.45025
 Alpha virt. eigenvalues --    1.46967   1.48037   1.50045   1.51486   1.53127
 Alpha virt. eigenvalues --    1.55171   1.55504   1.58327   1.59401   1.59525
 Alpha virt. eigenvalues --    1.60097   1.60575   1.64462   1.65381   1.66514
 Alpha virt. eigenvalues --    1.68202   1.68986   1.69209   1.71300   1.76239
 Alpha virt. eigenvalues --    1.76507   1.79213   1.79813   1.85745   1.87147
 Alpha virt. eigenvalues --    1.88470   1.90941   1.94343   1.94877   1.96271
 Alpha virt. eigenvalues --    1.96952   1.99149   1.99340   2.01318   2.03738
 Alpha virt. eigenvalues --    2.05865   2.07619   2.09765   2.10433   2.10907
 Alpha virt. eigenvalues --    2.16637   2.21849   2.25232   2.30096   2.32341
 Alpha virt. eigenvalues --    2.35130   2.41900   2.44815   2.46748   2.47142
 Alpha virt. eigenvalues --    2.48345   2.51634   2.53752   2.54064   2.60002
 Alpha virt. eigenvalues --    2.65605   2.67680   2.68228   2.69469   2.71129
 Alpha virt. eigenvalues --    2.72891   2.74667   2.75840   2.76017   2.78105
 Alpha virt. eigenvalues --    2.82556   2.83873   2.85614   2.88710   2.93126
 Alpha virt. eigenvalues --    2.93769   2.93963   2.98463   2.98919   3.12836
 Alpha virt. eigenvalues --    3.20718   3.23030   3.38849   3.40616   3.43297
 Alpha virt. eigenvalues --    3.48160   3.54902   3.55632   3.55884   3.66758
 Alpha virt. eigenvalues --    3.72519   3.79916   3.86314   3.88808   3.88872
 Alpha virt. eigenvalues --    3.91534   3.91624   3.93244   4.02311   4.03336
 Alpha virt. eigenvalues --    4.04393   4.08566   4.12527   4.12846   4.13386
 Alpha virt. eigenvalues --    4.14452   4.16045   4.20541   4.22319   4.86550
 Alpha virt. eigenvalues --    4.90406   4.90588   4.93075   5.11119   5.20185
 Alpha virt. eigenvalues --    5.78512   6.41026   6.41170   6.46418   6.52051
 Alpha virt. eigenvalues --    6.53122   6.62724   6.79406   6.82833   6.87889
 Alpha virt. eigenvalues --   23.67948  23.99529  24.00900  24.05305  24.15433
 Alpha virt. eigenvalues --   24.17324  24.27430  50.04245  66.91424  66.93344
 Alpha virt. eigenvalues --   66.93804
          Condensed to atoms (all electrons):
               1          2          3          4          5          6
     1  C    9.154604  -0.061553  -1.574873  -0.036041  -1.436673  -0.045439
     2  C   -0.061553   8.098142  -0.364186  -0.362342   0.375041  -1.772251
     3  C   -1.574873  -0.364186   7.810256   0.643198  -1.079881   0.385407
     4  C   -0.036041  -0.362342   0.643198   5.378184   0.631877  -0.344802
     5  C   -1.436673   0.375041  -1.079881   0.631877   7.692642  -0.363845
     6  C   -0.045439  -1.772251   0.385407  -0.344802  -0.363845   8.055765
     7  F    0.260140  -0.195179  -0.012849   0.026947  -0.013808  -0.192238
     8  H   -0.271518   0.401997   0.086020  -0.020645   0.038536   0.031238
     9  H    0.016908  -0.026283   0.386843  -0.063745  -0.014400   0.017990
    10  H    0.008026  -0.008247  -0.046395   0.424598  -0.044177  -0.009247
    11  H    0.019528   0.018487  -0.014488  -0.064993   0.383387  -0.025138
    12  H   -0.280190   0.030640   0.037789  -0.016705   0.093344   0.396590
    13  O    0.042097  -0.014160  -0.001600  -0.000419  -0.001633  -0.015125
    14  C   -0.011238   0.002302   0.000621   0.000335   0.000645   0.002722
    15  H   -0.000524   0.000197   0.000037  -0.000001   0.000035   0.000182
    16  H   -0.000524   0.000197   0.000037  -0.000001   0.000035   0.000182
    17  H    0.058674  -0.005857   0.002406  -0.001880  -0.034766   0.018791
    18  F   -0.163073  -0.007142  -0.003558   0.004707   0.086023   0.074136
    19  H    0.060990   0.016772  -0.035326  -0.001338   0.002179  -0.006756
    20  F   -0.170787   0.078806   0.089418   0.004597  -0.003438  -0.006395
               7          8          9         10         11         12
     1  C    0.260140  -0.271518   0.016908   0.008026   0.019528  -0.280190
     2  C   -0.195179   0.401997  -0.026283  -0.008247   0.018487   0.030640
     3  C   -0.012849   0.086020   0.386843  -0.046395  -0.014488   0.037789
     4  C    0.026947  -0.020645  -0.063745   0.424598  -0.064993  -0.016705
     5  C   -0.013808   0.038536  -0.014400  -0.044177   0.383387   0.093344
     6  C   -0.192238   0.031238   0.017990  -0.009247  -0.025138   0.396590
     7  F    9.296194  -0.006134  -0.001729   0.000813  -0.001733  -0.006815
     8  H   -0.006134   0.622178  -0.018530   0.001101   0.000716   0.001893
     9  H   -0.001729  -0.018530   0.489605  -0.010113   0.001517   0.000621
    10  H    0.000813   0.001101  -0.010113   0.495589  -0.010017   0.001251
    11  H   -0.001733   0.000716   0.001517  -0.010017   0.489505  -0.019150
    12  H   -0.006815   0.001893   0.000621   0.001251  -0.019150   0.633543
    13  O    0.009103  -0.001848   0.000053  -0.000005   0.000053  -0.001932
    14  C    0.003392   0.000521  -0.000036   0.000009  -0.000036   0.000547
    15  H   -0.000587   0.000095  -0.000001   0.000000  -0.000001   0.000098
    16  H   -0.000587   0.000095  -0.000001   0.000000  -0.000001   0.000098
    17  H    0.015131   0.000431   0.000130  -0.000270   0.003114  -0.056336
    18  F   -0.004785  -0.000033  -0.000041   0.000193  -0.001224   0.045806
    19  H    0.015873  -0.055186   0.003036  -0.000255   0.000116   0.000468
    20  F   -0.004969   0.044900  -0.001167   0.000192  -0.000037  -0.000036
              13         14         15         16         17         18
     1  C    0.042097  -0.011238  -0.000524  -0.000524   0.058674  -0.163073
     2  C   -0.014160   0.002302   0.000197   0.000197  -0.005857  -0.007142
     3  C   -0.001600   0.000621   0.000037   0.000037   0.002406  -0.003558
     4  C   -0.000419   0.000335  -0.000001  -0.000001  -0.001880   0.004707
     5  C   -0.001633   0.000645   0.000035   0.000035  -0.034766   0.086023
     6  C   -0.015125   0.002722   0.000182   0.000182   0.018791   0.074136
     7  F    0.009103   0.003392  -0.000587  -0.000587   0.015131  -0.004785
     8  H   -0.001848   0.000521   0.000095   0.000095   0.000431  -0.000033
     9  H    0.000053  -0.000036  -0.000001  -0.000001   0.000130  -0.000041
    10  H   -0.000005   0.000009   0.000000   0.000000  -0.000270   0.000193
    11  H    0.000053  -0.000036  -0.000001  -0.000001   0.003114  -0.001224
    12  H   -0.001932   0.000547   0.000098   0.000098  -0.056336   0.045806
    13  O    8.125251   0.269198  -0.088325  -0.088325   0.007063  -0.001185
    14  C    0.269198   4.942191   0.387554   0.387554  -0.000684  -0.000140
    15  H   -0.088325   0.387554   0.711619  -0.128772  -0.000203  -0.000103
    16  H   -0.088325   0.387554  -0.128772   0.711619  -0.000203  -0.000103
    17  H    0.007063  -0.000684  -0.000203  -0.000203   0.441793   0.310664
    18  F   -0.001185  -0.000140  -0.000103  -0.000103   0.310664   8.874525
    19  H    0.007152  -0.000695  -0.000210  -0.000210  -0.001122   0.000273
    20  F   -0.001223  -0.000138  -0.000101  -0.000101   0.000267  -0.000027
              19         20
     1  C    0.060990  -0.170787
     2  C    0.016772   0.078806
     3  C   -0.035326   0.089418
     4  C   -0.001338   0.004597
     5  C    0.002179  -0.003438
     6  C   -0.006756  -0.006395
     7  F    0.015873  -0.004969
     8  H   -0.055186   0.044900
     9  H    0.003036  -0.001167
    10  H   -0.000255   0.000192
    11  H    0.000116  -0.000037
    12  H    0.000468  -0.000036
    13  O    0.007152  -0.001223
    14  C   -0.000695  -0.000138
    15  H   -0.000210  -0.000101
    16  H   -0.000210  -0.000101
    17  H   -0.001122   0.000267
    18  F    0.000273  -0.000027
    19  H    0.441936   0.310702
    20  F    0.310702   8.874245
 Mulliken charges:
               1
     1  C    0.431466
     2  C   -0.205379
     3  C   -0.308875
     4  C   -0.201530
     5  C   -0.311120
     6  C   -0.201768
     7  F   -0.186182
     8  H    0.144171
     9  H    0.219345
    10  H    0.196954
    11  H    0.220396
    12  H    0.138476
    13  O   -0.244188
    14  C    0.015373
    15  H    0.119010
    16  H    0.119010
    17  H    0.242858
    18  F   -0.214914
    19  H    0.241603
    20  F   -0.214707
 Sum of Mulliken charges =  -0.00000
 Mulliken charges with hydrogens summed into heavy atoms:
               1
     1  C    0.431466
     2  C   -0.061208
     3  C   -0.089530
     4  C   -0.004576
     5  C   -0.090724
     6  C   -0.063292
     7  F   -0.186182
    13  O   -0.244188
    14  C    0.253394
    18  F    0.027943
    20  F    0.026897
 Electronic spatial extent (au):  <R**2>=           3008.7018
 Charge=             -0.0000 electrons
 Dipole moment (field-independent basis, Debye):
    X=              0.0040    Y=              1.1342    Z=             -0.0000  Tot=              1.1342
 Quadrupole moment (field-independent basis, Debye-Ang):
   XX=            -77.5745   YY=            -33.9587   ZZ=            -66.8159
   XY=              0.0797   XZ=             -0.0000   YZ=              0.0000
 Traceless Quadrupole moment (field-independent basis, Debye-Ang):
   XX=            -18.1248   YY=             25.4910   ZZ=             -7.3662
   XY=              0.0797   XZ=             -0.0000   YZ=              0.0000
 Octapole moment (field-independent basis, Debye-Ang**2):
  XXX=             -0.4416  YYY=            137.4808  ZZZ=             -0.0000  XYY=              0.0418
  XXY=            -14.7519  XXZ=             -0.0000  XZZ=             -0.0002  YZZ=             25.5220
  YYZ=             -0.0000  XYZ=             -0.0000
 Hexadecapole moment (field-independent basis, Debye-Ang**3):
 XXXX=          -1275.7008 YYYY=          -1738.0101 ZZZZ=            -75.5062 XXXY=             -1.5059
 XXXZ=             -0.0000 YYYX=             -0.5442 YYYZ=              0.0000 ZZZX=             -0.0000
 ZZZY=             -0.0000 XXYY=           -582.0928 XXZZ=           -190.8712 YYZZ=           -463.0202
 XXYZ=             -0.0000 YYXZ=              0.0000 ZZXY=             -0.3952
 N-N= 5.668869291377D+02 E-N=-2.658312582646D+03  KE= 6.448335939617D+02
 Symmetry A'   KE= 6.127337011063D+02
 Symmetry A"   KE= 3.209989285549D+01
 1\1\GINC-R820\POpt\RM062X\6-311++G(d,p)\C7H9F3O1\ZJXU\04-Jul-2024\1\\#
  m062x 6-311++G(d,p) opt=z-matrix\\test\\0,1\C\C,1,d1\C,2,d2,1,120.\C,
 3,d3,2,120.,1,0.,0\C,4,d4,3,120.,2,0.,0\C,5,d5,4,120.,3,0.,0\F,1,d6,2,
 120.,3,180.,0\H,2,d7,3,120.,4,180.,0\H,3,d8,4,120.,5,180.,0\H,4,d9,5,1
 20.,6,180.,0\H,5,d10,6,120.,1,180.,0\H,6,d11,1,120.,2,180.,0\O,7,d12,1
 ,179.9,3,180.,0\C,13,d13,1,179.9,2,180.,0\H,14,d14,1,120.,2,90.,0\H,14
 ,d15,1,120.,2,-90.,0\H,7,d16,1,100.,2,180.,0\F,17,d17,7,160.,1,0.,0\H,
 7,d18,1,100.,2,0.,0\F,19,d19,7,160.,1,0.,0\\d1=1.38370743\d2=1.3869962
 3\d3=1.38753074\d4=1.39079248\d5=1.39336186\d6=1.37184308\d7=1.0796399
 4\d8=1.08257012\d9=1.08315916\d10=1.08253196\d11=1.07930888\d12=2.8738
 718\d13=1.20009371\d14=1.10312482\d15=1.10312482\d16=2.39869355\d17=0.
 92184205\d18=2.36985024\d19=0.92199263\\Version=ES64L-G16RevB.01\State
 =1-A'\HF=-646.8223233\RMSD=3.352e-09\RMSF=3.592e-03\Dipole=-0.3856636,
 0.,-0.2244766\Quadrupole=10.7937735,-5.4765631,-5.3172104,0.,14.071063
 ,0.\PG=CS [SG(C7H7F3O1),X(H2)]\\@


 NOTHING PUZZLES ME MORE THAN TIME AND SPACE; AND YET NOTHING TROUBLES ME LESS
                                                          -- CHARLES LAMB (1810)
 Job cpu time:       0 days  1 hours  8 minutes 18.8 seconds.
 Elapsed time:       0 days  0 hours 17 minutes  8.6 seconds.
 File lengths (MBytes):  RWF=     62 Int=      0 D2E=      0 Chk=      8 Scr=      1
 Normal termination of Gaussian 16 at Thu Jul  4 16:18:41 2024.
