 Entering Gaussian System, Link 0=g16
 Input=model_H3.gjf
 Output=model_H3.log
 Initial command:
 /home/lywu/software/g16/l1.exe "/home/lywu/software/g16/scr/Gau-82351.inp" -scrdir="/home/lywu/software/g16/scr/"
 Entering Link 1 = /home/lywu/software/g16/l1.exe PID=     82352.
  
 Copyright (c) 1988-2017, Gaussian, Inc.  All Rights Reserved.
  
 This is part of the Gaussian(R) 16 program.  It is based on
 the Gaussian(R) 09 system (copyright 2009, Gaussian, Inc.),
 the Gaussian(R) 03 system (copyright 2003, Gaussian, Inc.),
 the Gaussian(R) 98 system (copyright 1998, Gaussian, Inc.),
 the Gaussian(R) 94 system (copyright 1995, Gaussian, Inc.),
 the Gaussian 92(TM) system (copyright 1992, Gaussian, Inc.),
 the Gaussian 90(TM) system (copyright 1990, Gaussian, Inc.),
 the Gaussian 88(TM) system (copyright 1988, Gaussian, Inc.),
 the Gaussian 86(TM) system (copyright 1986, Carnegie Mellon
 University), and the Gaussian 82(TM) system (copyright 1983,
 Carnegie Mellon University). Gaussian is a federally registered
 trademark of Gaussian, Inc.
  
 This software contains proprietary and confidential information,
 including trade secrets, belonging to Gaussian, Inc.
  
 This software is provided under written license and may be
 used, copied, transmitted, or stored only in accord with that
 written license.
  
 The following legend is applicable only to US Government
 contracts under FAR:
  
                    RESTRICTED RIGHTS LEGEND
  
 Use, reproduction and disclosure by the US Government is
 subject to restrictions as set forth in subparagraphs (a)
 and (c) of the Commercial Computer Software - Restricted
 Rights clause in FAR 52.227-19.
  
 Gaussian, Inc.
 340 Quinnipiac St., Bldg. 40, Wallingford CT 06492
  
  
 ---------------------------------------------------------------
 Warning -- This program may not be used in any manner that
 competes with the business of Gaussian, Inc. or will provide
 assistance to any competitor of Gaussian, Inc.  The licensee
 of this program is prohibited from giving any competitor of
 Gaussian, Inc. access to this program.  By using this program,
 the user acknowledges that Gaussian, Inc. is engaged in the
 business of creating and licensing software in the field of
 computational chemistry and represents and warrants to the
 licensee that it is not a competitor of Gaussian, Inc. and that
 it will not use this program in any manner prohibited above.
 ---------------------------------------------------------------
  

 Cite this work as:
 Gaussian 16, Revision B.01,
 M. J. Frisch, G. W. Trucks, H. B. Schlegel, G. E. Scuseria, 
 M. A. Robb, J. R. Cheeseman, G. Scalmani, V. Barone, 
 G. A. Petersson, H. Nakatsuji, X. Li, M. Caricato, A. V. Marenich, 
 J. Bloino, B. G. Janesko, R. Gomperts, B. Mennucci, H. P. Hratchian, 
 J. V. Ortiz, A. F. Izmaylov, J. L. Sonnenberg, D. Williams-Young, 
 F. Ding, F. Lipparini, F. Egidi, J. Goings, B. Peng, A. Petrone, 
 T. Henderson, D. Ranasinghe, V. G. Zakrzewski, J. Gao, N. Rega, 
 G. Zheng, W. Liang, M. Hada, M. Ehara, K. Toyota, R. Fukuda, 
 J. Hasegawa, M. Ishida, T. Nakajima, Y. Honda, O. Kitao, H. Nakai, 
 T. Vreven, K. Throssell, J. A. Montgomery, Jr., J. E. Peralta, 
 F. Ogliaro, M. J. Bearpark, J. J. Heyd, E. N. Brothers, K. N. Kudin, 
 V. N. Staroverov, T. A. Keith, R. Kobayashi, J. Normand, 
 K. Raghavachari, A. P. Rendell, J. C. Burant, S. S. Iyengar, 
 J. Tomasi, M. Cossi, J. M. Millam, M. Klene, C. Adamo, R. Cammi, 
 J. W. Ochterski, R. L. Martin, K. Morokuma, O. Farkas, 
 J. B. Foresman, and D. J. Fox, Gaussian, Inc., Wallingford CT, 2016.
 
 ******************************************
 Gaussian 16:  ES64L-G16RevB.01 20-Dec-2017
                 8-Jan-2025 
 ******************************************
 %mem=8GB
 %nprocshared=8
 Will use up to    8 processors via shared memory.
 ----------------------------------------------------------------------
 # opt=(z-matrix,recalc=5,loose) 6-311++g(d,p) m062x scrf=(solvent=dich
 loroethane)
 ----------------------------------------------------------------------
 1/7=-1,10=7,18=40,26=3,38=1,71=5/1,3;
 2/12=2,17=6,18=5,29=3,40=1/2;
 3/5=4,6=6,7=1111,11=2,25=1,30=1,70=2201,71=2,72=10,74=-55,140=1/1,2,3;
 4//1;
 5/5=2,38=5,53=10/2;
 8/6=4,10=90,11=11/1;
 11/6=1,8=1,9=11,15=111,16=1/1,2,10;
 10/6=1/2;
 6/7=2,8=2,9=2,10=2,28=1/1;
 7/10=1,25=1/1,2,3,16;
 1/7=-1,10=7,18=40,26=3,71=5/3(3);
 2/29=3/2;
 7/9=1,25=1,44=-1/16;
 99//99;
 2/29=3/2;
 3/5=4,6=6,7=1111,11=2,25=1,30=1,70=2205,71=2,72=10,74=-55,140=1/1,2,3;
 4/5=5,16=3,69=1/1;
 5/5=2,38=5,53=10/2;
 8/6=4,10=90,11=11/1;
 11/6=1,8=1,9=11,15=111,16=1/1,2,10;
 10/6=1/2;
 7/10=1,25=1/1,2,3,16;
 1/7=-1,18=40,26=3,71=5/3(-8);
 2/29=3/2;
 6/7=2,8=2,9=2,10=2,19=2,28=1/1;
 7/9=1,25=1,44=-1/16;
 99/9=1/99;
 ----
 test
 ----
 Symbolic Z-matrix:
 Charge =  0 Multiplicity = 1
 C
 C                    1    B1
 C                    2    B2       1     120. 
 C                    3    B3       2     120.     1     0.       0
 C                    4    B4       3     120.     2     0.       0
 C                    1    B5       2     119.97771  3     1.71723  0
 F                    1    B6       2     120.     3    -180.     0
 H                    2    B7       1     120.     6    -178.28277  0
 H                    3    B8       2     120.     1     180.     0
 H                    4    B9       3     120.     2     180.     0
 H                    5    B10      4     120.     3     180.     0
 H                    6    B11      1     119.91553  2    -177.77152  0
 O                    1    B12      2     120.     3    -180.     0
 C                    13   B13      1     179.9    2     180.     0
 H                    14   B14      13    119.99997  1    -90.0449  0
 H                    14   B15      13    119.99997  1     90.0449  0
 H                    7    B16      1     100.     2     90.      0
 N                    17   B17      7     179.9    1     90.      0
 C                    18   B18      17    119.5    7     0.       0
 O                    19   B19      18    123.2    17   -180.     0
 C                    18   B20      17    121.9    19   -180.     0
 H                    21   B21      18    110.7    17   -180.     0
 H                    21   B22      18    110.7    17   -60.      0
 H                    21   B23      18    110.7    17    60.      0
 H                    19   B24      18    113.46722  17    0.       0
 H                    7    B25      1     100.     2    -30.      0
 N                    26   B26      7     179.9    1    -30.      0
 C                    27   B27      26    119.5    7     120.     0
 O                    28   B28      27    123.2    26   -180.     0
 C                    27   B29      26    121.9    28   -180.     0
 H                    30   B30      27    110.7    26    180.     0
 H                    30   B31      27    110.7    26   -60.      0
 H                    30   B32      27    110.7    26    60.      0
 H                    28   B33      27    113.46722  26    0.       0
 H                    7    B34      1     100.     2    -150.     0
 N                    35   B35      7     179.9    1    -150.     0
 C                    36   B36      35    119.5    7     60.      0
 O                    37   B37      36    123.2    35   -180.     0
 C                    36   B38      35    121.9    37   -180.     0
 H                    39   B39      36    110.7    35    180.     0
 H                    39   B40      36    110.7    35   -60.      0
 H                    39   B41      36    110.7    35    60.      0
 H                    37   B42      36    113.46722  35    0.       0
       Variables:
  B1                    1.3                      
  B2                    1.3                      
  B3                    1.3                      
  B4                    1.3                      
  B5                    1.3                      
  B6                    1.4                      
  B7                    1.                       
  B8                    1.                       
  B9                    1.                       
  B10                   1.                       
  B11                   1.00101                  
  B12                   4.2                      
  B13                   1.2                      
  B14                   1.                       
  B15                   1.                       
  B16                   2.12                     
  B17                   1.                       
  B18                   1.33                     
  B19                   1.23                     
  B20                   1.45                     
  B21                   1.                       
  B22                   1.                       
  B23                   1.                       
  B24                   1.                       
  B25                   2.12                     
  B26                   1.                       
  B27                   1.33                     
  B28                   1.23                     
  B29                   1.45                     
  B30                   1.                       
  B31                   1.                       
  B32                   1.                       
  B33                   1.                       
  B34                   2.12                     
  B35                   1.                       
  B36                   1.33                     
  B37                   1.23                     
  B38                   1.45                     
  B39                   1.                       
  B40                   1.                       
  B41                   1.                       
  B42                   1.                       
 

 GradGradGradGradGradGradGradGradGradGradGradGradGradGradGradGradGradGrad
 Berny optimization.
 Initialization pass.
                       ----------------------------
                       !    Initial Parameters    !
                       ! (Angstroms and Degrees)  !
 ----------------------                            ----------------------
 !      Name          Value   Derivative information (Atomic Units)     !
 ------------------------------------------------------------------------
 !       B1          1.3      calculate D2E/DX2 analytically            !
 !       B2          1.3      calculate D2E/DX2 analytically            !
 !       B3          1.3      calculate D2E/DX2 analytically            !
 !       B4          1.3      calculate D2E/DX2 analytically            !
 !       B5          1.3      calculate D2E/DX2 analytically            !
 !       B6          1.4      calculate D2E/DX2 analytically            !
 !       B7          1.0      calculate D2E/DX2 analytically            !
 !       B8          1.0      calculate D2E/DX2 analytically            !
 !       B9          1.0      calculate D2E/DX2 analytically            !
 !       B10         1.0      calculate D2E/DX2 analytically            !
 !       B11         1.001    calculate D2E/DX2 analytically            !
 !       B12         4.2      calculate D2E/DX2 analytically            !
 !       B13         1.2      calculate D2E/DX2 analytically            !
 !       B14         1.0      calculate D2E/DX2 analytically            !
 !       B15         1.0      calculate D2E/DX2 analytically            !
 !       B16         2.12     calculate D2E/DX2 analytically            !
 !       B17         1.0      calculate D2E/DX2 analytically            !
 !       B18         1.33     calculate D2E/DX2 analytically            !
 !       B19         1.23     calculate D2E/DX2 analytically            !
 !       B20         1.45     calculate D2E/DX2 analytically            !
 !       B21         1.0      calculate D2E/DX2 analytically            !
 !       B22         1.0      calculate D2E/DX2 analytically            !
 !       B23         1.0      calculate D2E/DX2 analytically            !
 !       B24         1.0      calculate D2E/DX2 analytically            !
 !       B25         2.12     calculate D2E/DX2 analytically            !
 !       B26         1.0      calculate D2E/DX2 analytically            !
 !       B27         1.33     calculate D2E/DX2 analytically            !
 !       B28         1.23     calculate D2E/DX2 analytically            !
 !       B29         1.45     calculate D2E/DX2 analytically            !
 !       B30         1.0      calculate D2E/DX2 analytically            !
 !       B31         1.0      calculate D2E/DX2 analytically            !
 !       B32         1.0      calculate D2E/DX2 analytically            !
 !       B33         1.0      calculate D2E/DX2 analytically            !
 !       B34         2.12     calculate D2E/DX2 analytically            !
 !       B35         1.0      calculate D2E/DX2 analytically            !
 !       B36         1.33     calculate D2E/DX2 analytically            !
 !       B37         1.23     calculate D2E/DX2 analytically            !
 !       B38         1.45     calculate D2E/DX2 analytically            !
 !       B39         1.0      calculate D2E/DX2 analytically            !
 !       B40         1.0      calculate D2E/DX2 analytically            !
 !       B41         1.0      calculate D2E/DX2 analytically            !
 !       B42         1.0      calculate D2E/DX2 analytically            !
 ------------------------------------------------------------------------
 Trust Radius=3.00D-01 FncErr=1.00D-07 GrdErr=1.00D-06 EigMax=2.50D+02 EigMin=1.00D-04
 Number of steps in this run=     52 maximum allowed number of steps=    100.
 GradGradGradGradGradGradGradGradGradGradGradGradGradGradGradGradGradGrad

 ---------------------------------------------------------------------------------------------------
                            Z-MATRIX (ANGSTROMS AND DEGREES)
   CD    Cent   Atom    N1       Length/X        N2       Alpha/Y        N3        Beta/Z          J
 ---------------------------------------------------------------------------------------------------
      1      1  C 
      2      2  C        1   1.300000(     1)
      3      3  C        2   1.300000(     2)      1  120.000(    43)
      4      4  C        3   1.300000(     3)      2  120.000(    44)      1    0.000(    84)      0
      5      5  C        4   1.300000(     4)      3  120.000(    45)      2    0.000(    85)      0
      6      6  C        1   1.300000(     5)      2  119.978(    46)      3    1.717(    86)      0
      7      7  F        1   1.400000(     6)      2  120.000(    47)      3 -180.000(    87)      0
      8      8  H        2   1.000000(     7)      1  120.000(    48)      6 -178.283(    88)      0
      9      9  H        3   1.000000(     8)      2  120.000(    49)      1  180.000(    89)      0
     10     10  H        4   1.000000(     9)      3  120.000(    50)      2  180.000(    90)      0
     11     11  H        5   1.000000(    10)      4  120.000(    51)      3  180.000(    91)      0
     12     12  H        6   1.001007(    11)      1  119.916(    52)      2 -177.772(    92)      0
     13     13  O        1   4.200000(    12)      2  120.000(    53)      3 -180.000(    93)      0
     14     14  C       13   1.200000(    13)      1  179.900(    54)      2  180.000(    94)      0
     15     15  H       14   1.000000(    14)     13  120.000(    55)      1  -90.045(    95)      0
     16     16  H       14   1.000000(    15)     13  120.000(    56)      1   90.045(    96)      0
     17     17  H        7   2.120000(    16)      1  100.000(    57)      2   90.000(    97)      0
     18     18  N       17   1.000000(    17)      7  179.900(    58)      1   90.000(    98)      0
     19     19  C       18   1.330000(    18)     17  119.500(    59)      7    0.000(    99)      0
     20     20  O       19   1.230000(    19)     18  123.200(    60)     17 -180.000(   100)      0
     21     21  C       18   1.450000(    20)     17  121.900(    61)     19 -180.000(   101)      0
     22     22  H       21   1.000000(    21)     18  110.700(    62)     17 -180.000(   102)      0
     23     23  H       21   1.000000(    22)     18  110.700(    63)     17  -60.000(   103)      0
     24     24  H       21   1.000000(    23)     18  110.700(    64)     17   60.000(   104)      0
     25     25  H       19   1.000000(    24)     18  113.467(    65)     17    0.000(   105)      0
     26     26  H        7   2.120000(    25)      1  100.000(    66)      2  -30.000(   106)      0
     27     27  N       26   1.000000(    26)      7  179.900(    67)      1  -30.000(   107)      0
     28     28  C       27   1.330000(    27)     26  119.500(    68)      7  120.000(   108)      0
     29     29  O       28   1.230000(    28)     27  123.200(    69)     26 -180.000(   109)      0
     30     30  C       27   1.450000(    29)     26  121.900(    70)     28 -180.000(   110)      0
     31     31  H       30   1.000000(    30)     27  110.700(    71)     26  180.000(   111)      0
     32     32  H       30   1.000000(    31)     27  110.700(    72)     26  -60.000(   112)      0
     33     33  H       30   1.000000(    32)     27  110.700(    73)     26   60.000(   113)      0
     34     34  H       28   1.000000(    33)     27  113.467(    74)     26    0.000(   114)      0
     35     35  H        7   2.120000(    34)      1  100.000(    75)      2 -150.000(   115)      0
     36     36  N       35   1.000000(    35)      7  179.900(    76)      1 -150.000(   116)      0
     37     37  C       36   1.330000(    36)     35  119.500(    77)      7   60.000(   117)      0
     38     38  O       37   1.230000(    37)     36  123.200(    78)     35 -180.000(   118)      0
     39     39  C       36   1.450000(    38)     35  121.900(    79)     37 -180.000(   119)      0
     40     40  H       39   1.000000(    39)     36  110.700(    80)     35  180.000(   120)      0
     41     41  H       39   1.000000(    40)     36  110.700(    81)     35  -60.000(   121)      0
     42     42  H       39   1.000000(    41)     36  110.700(    82)     35   60.000(   122)      0
     43     43  H       37   1.000000(    42)     36  113.467(    83)     35    0.000(   123)      0
 ---------------------------------------------------------------------------------------------------
                         Z-Matrix orientation:                         
 ---------------------------------------------------------------------
 Center     Atomic      Atomic             Coordinates (Angstroms)
 Number     Number       Type             X           Y           Z
 ---------------------------------------------------------------------
      1          6           0        0.000000    0.000000    0.000000
      2          6           0        0.000000    0.000000    1.300000
      3          6           0        1.125833    0.000000    1.950000
      4          6           0        2.251666    0.000000    1.300000
      5          6           0        2.251666    0.000000    0.000000
      6          6           0        1.125580   -0.033745   -0.649562
      7          9           0       -1.212436    0.000000   -0.700000
      8          1           0       -0.866025    0.000000    1.800000
      9          1           0        1.125833    0.000000    2.950000
     10          1           0        3.117691    0.000000    1.800000
     11          1           0        3.117691    0.000000   -0.500000
     12          1           0        1.125833   -0.000000   -1.650000
     13          8           0       -3.637307    0.000000   -2.100000
     14          6           0       -4.675488    0.000000   -2.701813
     15          1           0       -5.108404    0.866025   -2.951981
     16          1           0       -5.108404   -0.866025   -2.951981
     17          1           0       -1.531249    2.087792   -0.884067
     18          7           0       -1.680760    3.072599   -0.972403
     19          6           0       -1.199589    3.715582   -2.032566
     20          8           0       -1.343395    4.924232   -2.209721
     21          6           0       -2.411147    3.829308    0.025809
     22          1           0       -2.460643    4.795025   -0.229027
     23          1           0       -3.344400    3.482475    0.119330
     24          1           0       -1.962551    3.763826    0.917141
     25          1           0       -0.710188    3.121088   -2.670583
     26          1           0       -2.435290   -1.043896    0.681777
     27          7           0       -3.010713   -1.537186    1.334121
     28          6           0       -3.677547   -0.858264    2.263259
     29          8           0       -4.403726   -1.395039    3.098385
     30          6           0       -3.143252   -2.980718    1.300227
     31          1           0       -3.756373   -3.296485    2.024364
     32          1           0       -3.515872   -3.280948    0.422152
     33          1           0       -2.254441   -3.420416    1.429379
     34          1           0       -3.530959    0.129828    2.216495
     35          1           0       -0.627208   -1.043896   -2.449911
     36          7           0       -0.352343   -1.535412   -3.276265
     37          6           0        0.116788   -0.854333   -4.317873
     38          8           0        0.473992   -1.388863   -5.366483
     39          6           0       -0.449188   -2.978643   -3.377292
     40          1           0       -0.131045   -3.292503   -4.271874
     41          1           0        0.108505   -3.420390   -2.674555
     42          1           0       -1.395847   -3.278510   -3.259330
     43          1           0        0.150625    0.133376   -4.165278
 ---------------------------------------------------------------------
                    Distance matrix (angstroms):
                    1          2          3          4          5
     1  C    0.000000
     2  C    1.300000   0.000000
     3  C    2.251666   1.300000   0.000000
     4  C    2.600000   2.251666   1.300000   0.000000
     5  C    2.251666   2.600000   2.251666   1.300000   0.000000
     6  C    1.300000   2.251413   2.599781   2.251666   1.300438
     7  F    1.400000   2.338803   3.534119   4.000000   3.534119
     8  H    1.997498   1.000000   1.997498   3.157531   3.600000
     9  H    3.157531   1.997498   1.000000   1.997498   3.157531
    10  H    3.600000   3.157531   1.997498   1.000000   1.997498
    11  H    3.157531   3.600000   3.157531   1.997498   1.000000
    12  H    1.997498   3.157531   3.600000   3.157531   1.997498
    13  O    4.200000   4.978956   6.252200   6.800000   6.252200
    14  C    5.399999   6.154242   7.436040   7.999998   7.435406
    15  H    5.963219   6.702621   7.977790   8.544002   7.977144
    16  H    5.963219   6.702621   7.977790   8.544002   7.977144
    17  H    2.735905   3.387292   4.410317   4.841433   4.410317
    18  N    3.634747   4.174881   5.085102   5.483489   5.084329
    19  C    4.401805   5.133279   5.922328   6.068171   5.463335
    20  O    5.561982   6.194426   6.902784   7.034960   6.485013
    21  C    4.525251   4.701148   5.556648   6.166765   6.033746
    22  H    5.394393   5.602227   6.372066   6.894639   6.726854
    23  H    4.829791   4.970576   5.954995   6.696086   6.592255
    24  H    4.342712   4.261992   4.977078   5.663267   5.724261
    25  H    4.168641   5.100106   5.870430   5.854853   5.064167
    26  H    2.735905   2.720764   3.921697   4.841433   4.849958
    27  N    3.634173   3.380606   4.455700   5.482403   5.642292
    28  C    4.402648   3.897286   4.889499   6.067953   6.404258
    29  O    5.562277   4.957129   5.817297   7.033816   7.472641
    30  C    4.522754   4.331826   5.247092   6.163588   6.299239
    31  H    5.392143   5.049936   5.891373   6.891158   7.145726
    32  H    4.827441   4.888414   5.885946   6.693260   6.648859
    33  H    4.338764   4.098596   4.836997   5.658709   5.835012
    34  H    4.171017   3.650273   4.666218   5.856243   6.194228
    35  H    2.735905   3.942708   4.849958   4.841433   3.921697
    36  N    3.635320   4.839818   5.644143   5.484575   4.457832
    37  C    4.403130   5.683663   6.405802   6.070263   4.891996
    38  O    5.563520   6.826098   7.475611   7.037831   5.821358
    39  C    4.525504   5.563375   6.303415   6.167980   5.251002
    40  H    5.395058   6.473293   7.150667   6.896642   5.896337
    41  H    4.343281   5.244800   5.841279   5.664742   4.842051
    42  H    4.829104   5.786580   6.651663   6.696303   5.888651
    43  H    4.170134   5.468980   6.193985   5.856742   4.667088
                    6          7          8          9         10
     6  C    0.000000
     7  F    2.338803   0.000000
     8  H    3.157212   2.523886   0.000000
     9  H    3.599720   4.334743   2.300000   0.000000
    10  H    3.157531   5.000000   3.983717   2.300000   0.000000
    11  H    1.998003   4.334743   4.600000   3.983717   2.300000
    12  H    1.001007   2.523886   3.983717   4.600000   3.983717
    13  O    4.978956   2.800000   4.784349   6.941902   7.800000
    14  C    6.153476   3.999999   5.897315   8.099279   8.999998
    15  H    6.706212   4.582574   6.428771   8.628389   9.539390
    16  H    6.697491   4.582574   6.428771   8.628389   9.539390
    17  H    3.408028   2.120000   3.464912   5.110678   5.759839
    18  N    4.198707   3.119999   4.217923   5.718660   6.336577
    19  C    4.623479   3.947334   5.348399   6.636196   6.865349
    20  O    5.754257   5.152132   6.368187   7.547706   7.760620
    21  C    5.280885   4.077660   4.494303   5.977016   6.955531
    22  H    6.029500   4.977158   5.445367   6.779475   7.630663
    23  H    5.738965   4.164638   4.592888   6.334296   7.530665
    24  H    5.139325   4.164638   4.018482   5.276080   6.383940
    25  H    4.172235   3.725136   5.454502   6.686039   6.661829
    26  H    3.933531   2.120000   2.191514   4.349270   5.759839
    27  N    4.827448   3.119999   2.679491   4.699470   6.335403
    28  C    5.677533   3.948961   2.975883   4.927544   6.864873
    29  O    6.817144   5.153465   4.018366   5.704750   7.759102
    30  C    5.541593   4.075984   3.784206   5.461824   6.952256
    31  H    6.452040   4.976002   4.389905   5.963183   7.626921
    32  H    5.765065   4.162891   4.436752   6.220937   7.527765
    33  H    5.216903   4.161643   3.710028   5.043589   6.379374
    34  H    5.470320   3.728049   2.700407   4.715994   6.662948
    35  H    2.708123   2.120000   4.382750   5.772514   5.759839
    36  N    3.367318   3.119999   5.328211   6.580948   6.337752
    37  C    3.891983   3.947876   6.254933   7.387154   6.867582
    38  O    4.950784   5.152577   7.421797   8.456816   7.763798
    39  C    4.311940   4.077101   5.987522   7.168516   6.956960
    40  H    5.031874   4.976773   6.946109   8.035906   7.632989
    41  H    4.074850   4.164471   5.715804   6.661054   6.385602
    42  H    4.867955   4.163224   6.051955   7.460783   7.531101
    43  H    3.652223   3.726108   6.052761   7.183036   6.663769
                   11         12         13         14         15
    11  H    0.000000
    12  H    2.300000   0.000000
    13  O    6.941902   4.784349   0.000000
    14  C    8.098249   5.895900   1.200000   0.000000
    15  H    8.627332   6.427353   1.907878   1.000000   0.000000
    16  H    8.627332   6.427353   1.907878   1.000000   1.732051
    17  H    5.110678   3.464912   3.205129   4.189191   4.308714
    18  N    5.717444   4.216274   3.813189   4.626027   4.531715
    19  C    5.898577   4.399942   4.444386   5.131795   4.923833
    20  O    6.860940   5.537006   5.433427   5.965992   5.585274
    21  C    6.745971   5.475597   4.548201   5.218310   4.992341
    22  H    7.360944   6.154205   5.279900   5.832022   5.464628
    23  H    7.366806   5.936425   4.139910   4.675284   4.403461
    24  H    6.479471   5.504064   5.106304   5.884152   5.767473
    25  H    5.394931   3.762148   4.316802   5.046363   4.950636
    26  H    5.772514   4.382750   3.205129   4.190094   4.898728
    27  N    6.579079   5.327188   3.814282   4.628518   5.342884
    28  C    7.385627   6.254812   4.447051   5.136579   5.676201
    29  O    8.453770   7.420871   5.436611   5.971791   6.497377
    30  C    7.164141   5.984447   4.548661   5.220034   6.061397
    31  H    8.030691   6.942889   5.281228   5.835095   6.627103
    32  H    7.457824   6.050112   4.140122   4.676375   5.578379
    33  H    6.654439   5.710348   5.105691   5.884511   6.761287
    34  H    7.183367   6.054119   4.319756   5.051391   5.453757
    35  H    4.349270   2.191514   3.205129   4.188287   4.897039
    36  N    4.701731   2.680902   3.812096   4.623535   5.337807
    37  C    4.930666   2.977517   4.443205   5.129079   5.668150
    38  O    5.709706   4.020707   5.431541   5.962094   6.486717
    39  C    5.465688   3.786363   4.546195   5.214423   6.055631
    40  H    5.968408   4.392555   5.277451   5.827318   6.618881
    41  H    5.048065   3.712646   5.104928   5.881020   6.757696
    42  H    6.223710   4.438180   4.137247   4.670706   5.572676
    43  H    4.717578   2.701008   4.316433   5.044888   5.446674
                   16         17         18         19         20
    16  H    0.000000
    17  H    5.079109   0.000000
    18  N    5.583926   1.000000   0.000000
    19  C    6.092232   2.019591   1.330000   0.000000
    20  O    6.946461   3.136564   2.252403   1.230000   0.000000
    21  C    6.179691   2.152898   1.450000   2.391174   2.708605
    22  H    6.817082   2.936317   2.031644   2.451165   2.277737
    23  H    5.608397   2.497892   2.031644   3.047165   3.392221
    24  H    6.804559   2.497892   2.031644   3.047165   3.392221
    25  H    5.943111   2.221144   1.956573   1.000000   1.965877
    26  H    4.514574   3.616163   4.500128   5.616694   6.720978
    27  N    4.818862   4.499961   5.323434   6.496640   7.555706
    28  C    5.407970   4.815756   5.468852   6.746440   7.674182
    29  O    6.114193   6.020064   6.629151   7.919066   8.801977
    30  C    5.139555   5.749739   6.629206   7.728245   8.834447
    31  H    5.700801   6.511574   7.338529   8.494994   9.556680
    32  H    4.444410   5.870971   6.758696   7.768026   8.886584
    33  H    5.819479   6.017923   6.946719   8.001265   9.149110
    34  H    5.494834   4.176835   4.717224   6.028884   6.882088
    35  H    4.512740   3.616163   4.498726   4.811905   6.015744
    36  N    4.813871   4.498894   5.320361   5.462376   6.621685
    37  C    5.400781   4.812811   5.462980   5.276324   6.322045
    38  O    6.104616   6.016659   6.622352   6.322281   7.288568
    39  C    5.133453   5.749417   6.627050   6.869063   8.038549
    40  H    5.692453   6.510406   7.335029   7.434348   8.557862
    41  H    5.815314   6.019528   6.946776   7.283224   8.482736
    42  H    4.438200   5.870043   6.756315   7.103575   8.269789
    43  H    5.488924   4.173103   4.710356   4.382206   5.385963
                   21         22         23         24         25
    21  C    0.000000
    22  H    1.000000   0.000000
    23  H    1.000000   1.620237   0.000000
    24  H    1.000000   1.620237   1.620237   0.000000
    25  H    3.265787   3.439091   3.853996   3.853996   0.000000
    26  H    4.917215   5.909586   4.650900   4.836639   5.617952
    27  N    5.556116   6.545450   5.175332   5.419710   6.559695
    28  C    5.346334   6.296985   4.852776   5.110476   6.998804
    29  O    6.380040   7.291374   5.812666   6.109915   8.204793
    30  C    6.966820   7.954040   6.573268   6.857820   7.675883
    31  H    7.522020   8.498778   7.053594   7.368293   8.515105
    32  H    7.206472   8.170611   6.772370   7.230952   7.643490
    33  H    7.386005   8.383693   7.110144   7.208393   7.873099
    34  H    4.442886   5.374962   3.958933   4.165834   6.386542
    35  H    5.749761   6.510515   5.871301   6.019500   4.171652
    36  N    6.627412   7.335191   6.757342   6.946896   4.709342
    37  C    6.869827   7.434855   7.104682   7.283984   4.381944
    38  O    8.039288   8.558389   8.270684   8.483566   5.386077
    39  C    7.859935   8.624815   7.896497   8.135928   6.146079
    40  H    8.624914   9.337010   8.689572   8.948300   6.635789
    41  H    8.136260   8.948417   8.208404   8.294728   6.592512
    42  H    7.895824   8.688987   7.805326   8.207226   6.463096
    43  H    6.147178   6.636548   6.464483   6.593684   3.449861
                   26         27         28         29         30
    26  H    0.000000
    27  N    1.000000   0.000000
    28  C    2.019591   1.330000   0.000000
    29  O    3.136564   2.252403   1.230000   0.000000
    30  C    2.152898   1.450000   2.391174   2.708605   0.000000
    31  H    2.936317   2.031644   2.451165   2.277737   1.000000
    32  H    2.497892   2.031644   3.047165   3.392221   1.000000
    33  H    2.497892   2.031644   3.047165   3.392221   1.000000
    34  H    2.221144   1.956573   1.000000   1.965877   3.265787
    35  H    3.616163   4.499259   5.617206   6.720787   4.913786
    36  N    4.499595   5.321898   6.496294   7.554441   5.551790
    37  C    5.616542   6.495583   7.596598   8.702201   6.834649
    38  O    6.720445   7.554024   8.702286   9.769656   7.750064
    39  C    4.915678   5.553073   6.836236   7.751166   5.397886
    40  H    5.907998   6.542233   7.823756   8.727937   6.341838
    41  H    4.835657   5.417145   6.729092   7.601915   5.154234
    42  H    4.648254   5.171053   6.446917   7.281163   4.892000
    43  H    5.618441   6.559591   7.547473   8.708558   7.100631
                   31         32         33         34         35
    31  H    0.000000
    32  H    1.620237   0.000000
    33  H    1.620237   1.620237   0.000000
    34  H    3.439091   3.853996   3.853996   0.000000
    35  H    5.906350   4.647313   4.831628   5.620031   0.000000
    36  N    6.541060   5.170406   5.414269   6.561025   1.000000
    37  C    7.822369   6.446124   6.725951   7.548020   2.019591
    38  O    8.726949   7.280611   7.599691   8.709054   3.136564
    39  C    6.341639   4.892005   5.153464   7.102842   2.152898
    40  H    7.265372   5.787146   6.085183   8.085215   2.936317
    41  H    6.085431   4.769187   4.735587   7.054936   2.497892
    42  H    5.787039   4.248272   4.768785   6.794125   2.497892
    43  H    8.083332   6.793035   7.050814   7.367572   2.221144
                   36         37         38         39         40
    36  N    0.000000
    37  C    1.330000   0.000000
    38  O    2.252403   1.230000   0.000000
    39  C    1.450000   2.391174   2.708605   0.000000
    40  H    2.031644   2.451165   2.277737   1.000000   0.000000
    41  H    2.031644   3.047165   3.392221   1.000000   1.620237
    42  H    2.031644   3.047165   3.392221   1.000000   1.620237
    43  H    1.956573   1.000000   1.965877   3.265787   3.439091
                   41         42         43
    41  H    0.000000
    42  H    1.620237   0.000000
    43  H    3.853996   3.853996   0.000000
 Stoichiometry    C13H22FN3O4
 Framework group  C1[X(C13H22FN3O4)]
 Deg. of freedom   123
 Full point group                 C1      NOp   1
 Largest Abelian subgroup         C1      NOp   1
 Largest concise Abelian subgroup C1      NOp   1
                         Standard orientation:                         
 ---------------------------------------------------------------------
 Center     Atomic      Atomic             Coordinates (Angstroms)
 Number     Number       Type             X           Y           Z
 ---------------------------------------------------------------------
      1          6           0       -0.095176   -0.155971    1.438323
      2          6           0       -1.215814    0.026034    2.071604
      3          6           0       -1.250836   -0.058876    3.368355
      4          6           0       -0.165219   -0.325791    4.031826
      5          6           0        0.955419   -0.507796    3.398545
      6          6           0        0.983263   -0.455779    2.099446
      7          9           0       -0.057461   -0.064529    0.041822
      8          1           0       -2.050904    0.231354    1.561242
      9          1           0       -2.112865    0.081128    3.855494
     10          1           0       -0.192159   -0.391107    5.029327
     11          1           0        1.790509   -0.713116    3.908907
     12          1           0        1.852470   -0.562890    1.614655
     13          8           0        0.017970    0.118355   -2.751181
     14          6           0        0.052350    0.196316   -3.948152
     15          1           0        0.237482    1.075687   -4.386824
     16          1           0       -0.105462   -0.617817   -4.506975
     17          1           0        0.365836    2.000844   -0.180563
     18          7           0        0.567215    2.974727   -0.285439
     19          6           0        1.832924    3.379789   -0.338391
     20          8           0        2.157849    4.559209   -0.466040
     21          6           0       -0.484233    3.968473   -0.382528
     22          1           0       -0.096441    4.884753   -0.482766
     23          1           0       -1.068967    3.788274   -1.173487
     24          1           0       -1.056245    3.959144    0.437664
     25          1           0        2.493551    2.632733   -0.264379
     26          1           0       -2.025849   -0.700666   -0.422049
     27          7           0       -2.954344   -1.001737   -0.639429
     28          6           0       -3.931997   -0.103648   -0.720236
     29          8           0       -5.097006   -0.398090   -0.982835
     30          6           0       -3.272784   -2.397178   -0.871461
     31          1           0       -4.245606   -2.508735   -1.074372
     32          1           0       -2.749161   -2.755438   -1.644422
     33          1           0       -3.056469   -2.947887   -0.065280
     34          1           0       -3.627649    0.833002   -0.546859
     35          1           0        1.517383   -1.421629   -0.373564
     36          7           0        2.260653   -2.060847   -0.570922
     37          6           0        3.512292   -1.614057   -0.622675
     38          8           0        4.477055   -2.339314   -0.859604
     39          6           0        2.016797   -3.470970   -0.804561
     40          1           0        2.874250   -3.952800   -0.985155
     41          1           0        1.583763   -3.891640   -0.007367
     42          1           0        1.414040   -3.599732   -1.592028
     43          1           0        3.592104   -0.632253   -0.450365
 ---------------------------------------------------------------------
 Rotational constants (GHZ):           0.2081136           0.1792946           0.1648973
 Standard basis: 6-311++G(d,p) (5D, 7F)
 There are   637 symmetry adapted cartesian basis functions of A   symmetry.
 There are   616 symmetry adapted basis functions of A   symmetry.
   616 basis functions,   954 primitive gaussians,   637 cartesian basis functions
    81 alpha electrons       81 beta electrons
       nuclear repulsion energy      1700.9009915983 Hartrees.
 NAtoms=   43 NActive=   43 NUniq=   43 SFac= 1.00D+00 NAtFMM=   60 NAOKFM=F Big=F
 Integral buffers will be    131072 words long.
 Raffenetti 2 integral format.
 Two-electron integral symmetry is turned on.
 Force inversion solution in PCM.
 ------------------------------------------------------------------------------
 Polarizable Continuum Model (PCM)
 =================================
 Model                : PCM.
 Atomic radii         : UFF (Universal Force Field).
 Polarization charges : Total charges.
 Charge compensation  : None.
 Solution method      : Matrix inversion.
 Cavity type          : Scaled VdW (van der Waals Surface) (Alpha=1.100).
 Cavity algorithm     : GePol (No added spheres)
                        Default sphere list used, NSphG=   43.
                        Lebedev-Laikov grids with approx.  5.0 points / Ang**2.
                        Smoothing algorithm: York/Karplus (Gamma=1.0000).
                        Polarization charges: spherical gaussians, with
                                              point-specific exponents (IZeta= 3).
                        Self-potential: point-specific (ISelfS= 7).
                        Self-field    : sphere-specific E.n sum rule (ISelfD= 2).
 1st derivatives      : Analytical E(r).r(x)/FMM algorithm (CHGder, D1EAlg=3).
                        Cavity 1st derivative terms included.
 2nd derivatives      : Analytical E(r).r(xy)/FMM algorithm (CHGder, D2EAlg=3).
                        Cavity 2nd derivative terms included.
 Solvent              : DiChloroEthane, Eps=  10.125000 Eps(inf)=   2.087447
 ------------------------------------------------------------------------------
 One-electron integrals computed using PRISM.
 NBasis=   616 RedAO= T EigKep=  3.11D-06  NBF=   616
 NBsUse=   614 1.00D-06 EigRej=  7.33D-07 NBFU=   614
 ExpMin= 3.60D-02 ExpMax= 1.14D+04 ExpMxC= 1.72D+03 IAcc=3 IRadAn=         5 AccDes= 0.00D+00
 Harris functional with IExCor= 1009 and IRadAn=       5 diagonalized for initial guess.
 HarFok:  IExCor= 1009 AccDes= 0.00D+00 IRadAn=         5 IDoV= 1 UseB2=F ITyADJ=14
 ICtDFT=  3500011 ScaDFX=  1.000000  1.000000  1.000000  1.000000
 FoFCou: FMM=F IPFlag=           0 FMFlag=      100000 FMFlg1=           0
         NFxFlg=           0 DoJE=T BraDBF=F KetDBF=T FulRan=T
         wScrn=  0.000000 ICntrl=       500 IOpCl=  0 I1Cent=   200000004 NGrid=           0
         NMat0=    1 NMatS0=      1 NMatT0=    0 NMatD0=    1 NMtDS0=    0 NMtDT0=    0
 Petite list used in FoFCou.
 Requested convergence on RMS density matrix=1.00D-08 within 128 cycles.
 Requested convergence on MAX density matrix=1.00D-06.
 Requested convergence on             energy=1.00D-06.
 No special actions if energy rises.
 Inv3:  Mode=1 IEnd=    42345147.
 Iteration    1 A*A^-1 deviation from unit magnitude is 5.77D-15 for   3749.
 Iteration    1 A*A^-1 deviation from orthogonality  is 4.17D-15 for   3749   2777.
 Iteration    1 A^-1*A deviation from unit magnitude is 5.22D-15 for   3735.
 Iteration    1 A^-1*A deviation from orthogonality  is 3.29D-15 for   3743   3672.
 Error on total polarization charges =  0.01654
 SCF Done:  E(RM062X) =  -1073.31093850     A.U. after   14 cycles
            NFock= 14  Conv=0.41D-08     -V/T= 1.9993
 DoSCS=F DFT=T ScalE2(SS,OS)=  1.000000  1.000000
 Range of M.O.s used for correlation:     1   614
 NBasis=   616 NAE=    81 NBE=    81 NFC=     0 NFV=     0
 NROrb=    614 NOA=    81 NOB=    81 NVA=   533 NVB=   533

 **** Warning!!: The largest alpha MO coefficient is  0.11550479D+03

 Symmetrizing basis deriv contribution to polar:
 IMax=3 JMax=2 DiffMx= 0.00D+00
 G2DrvN: will do    44 centers at a time, making    1 passes.
 Calling FoFCou, ICntrl=  3107 FMM=F I1Cent=   0 AccDes= 0.00D+00.
 NEqPCM:  Using equilibrium solvation (IEInf=0, Eps=  10.1250, EpsInf=   2.0874)
 G2PCM: DoFxE=T DoFxN=T DoGrad=T DoDP/DQ/DG/TGxP=FFFF NFrqRd=   0 IEInf=0 SqF1=F DoCFld=F IF1Alg=4.
 End of G2Drv F.D. properties file   721 does not exist.
 End of G2Drv F.D. properties file   722 does not exist.
 End of G2Drv F.D. properties file   788 does not exist.
          IDoAtm=1111111111111111111111111111111111111111111
 NEqPCM:  Using equilibrium solvation (IEInf=0, Eps=  10.1250, EpsInf=   2.0874)
          Differentiating once with respect to electric field.
                with respect to dipole field.
          Differentiating once with respect to nuclear coordinates.
 CalDSu exits because no D1Ps are significant.
          There are   132 degrees of freedom in the 1st order CPHF.  IDoFFX=6 NUNeed=     3.
    129 vectors produced by pass  0 Test12= 4.32D-14 1.00D-09 XBig12= 1.04D+02 3.16D+00.
 AX will form   129 AO Fock derivatives at one time.
    129 vectors produced by pass  1 Test12= 4.32D-14 1.00D-09 XBig12= 1.19D+01 3.96D-01.
    129 vectors produced by pass  2 Test12= 4.32D-14 1.00D-09 XBig12= 1.67D-01 6.63D-02.
    129 vectors produced by pass  3 Test12= 4.32D-14 1.00D-09 XBig12= 1.87D-03 6.09D-03.
    129 vectors produced by pass  4 Test12= 4.32D-14 1.00D-09 XBig12= 1.14D-05 2.85D-04.
    129 vectors produced by pass  5 Test12= 4.32D-14 1.00D-09 XBig12= 5.66D-08 1.80D-05.
     92 vectors produced by pass  6 Test12= 4.32D-14 1.00D-09 XBig12= 1.65D-10 8.36D-07.
     12 vectors produced by pass  7 Test12= 4.32D-14 1.00D-09 XBig12= 5.00D-13 6.49D-08.
      3 vectors produced by pass  8 Test12= 4.32D-14 1.00D-09 XBig12= 1.82D-15 6.68D-09.
 InvSVY:  IOpt=1 It=  1 EMax= 8.88D-15
 Solved reduced A of dimension   881 with   132 vectors.
 Isotropic polarizability for W=    0.000000      208.21 Bohr**3.
 End of Minotr F.D. properties file   721 does not exist.
 End of Minotr F.D. properties file   722 does not exist.
 End of Minotr F.D. properties file   788 does not exist.

 **********************************************************************

            Population analysis using the SCF Density.

 **********************************************************************

 Orbital symmetries:
       Occupied  (A) (A) (A) (A) (A) (A) (A) (A) (A) (A) (A) (A)
                 (A) (A) (A) (A) (A) (A) (A) (A) (A) (A) (A) (A)
                 (A) (A) (A) (A) (A) (A) (A) (A) (A) (A) (A) (A)
                 (A) (A) (A) (A) (A) (A) (A) (A) (A) (A) (A) (A)
                 (A) (A) (A) (A) (A) (A) (A) (A) (A) (A) (A) (A)
                 (A) (A) (A) (A) (A) (A) (A) (A) (A) (A) (A) (A)
                 (A) (A) (A) (A) (A) (A) (A) (A) (A)
       Virtual   (A) (A) (A) (A) (A) (A) (A) (A) (A) (A) (A) (A)
                 (A) (A) (A) (A) (A) (A) (A) (A) (A) (A) (A) (A)
                 (A) (A) (A) (A) (A) (A) (A) (A) (A) (A) (A) (A)
                 (A) (A) (A) (A) (A) (A) (A) (A) (A) (A) (A) (A)
                 (A) (A) (A) (A) (A) (A) (A) (A) (A) (A) (A) (A)
                 (A) (A) (A) (A) (A) (A) (A) (A) (A) (A) (A) (A)
                 (A) (A) (A) (A) (A) (A) (A) (A) (A) (A) (A) (A)
                 (A) (A) (A) (A) (A) (A) (A) (A) (A) (A) (A) (A)
                 (A) (A) (A) (A) (A) (A) (A) (A) (A) (A) (A) (A)
                 (A) (A) (A) (A) (A) (A) (A) (A) (A) (A) (A) (A)
                 (A) (A) (A) (A) (A) (A) (A) (A) (A) (A) (A) (A)
                 (A) (A) (A) (A) (A) (A) (A) (A) (A) (A) (A) (A)
                 (A) (A) (A) (A) (A) (A) (A) (A) (A) (A) (A) (A)
                 (A) (A) (A) (A) (A) (A) (A) (A) (A) (A) (A) (A)
                 (A) (A) (A) (A) (A) (A) (A) (A) (A) (A) (A) (A)
                 (A) (A) (A) (A) (A) (A) (A) (A) (A) (A) (A) (A)
                 (A) (A) (A) (A) (A) (A) (A) (A) (A) (A) (A) (A)
                 (A) (A) (A) (A) (A) (A) (A) (A) (A) (A) (A) (A)
                 (A) (A) (A) (A) (A) (A) (A) (A) (A) (A) (A) (A)
                 (A) (A) (A) (A) (A) (A) (A) (A) (A) (A) (A) (A)
                 (A) (A) (A) (A) (A) (A) (A) (A) (A) (A) (A) (A)
                 (A) (A) (A) (A) (A) (A) (A) (A) (A) (A) (A) (A)
                 (A) (A) (A) (A) (A) (A) (A) (A) (A) (A) (A) (A)
                 (A) (A) (A) (A) (A) (A) (A) (A) (A) (A) (A) (A)
                 (A) (A) (A) (A) (A) (A) (A) (A) (A) (A) (A) (A)
                 (A) (A) (A) (A) (A) (A) (A) (A) (A) (A) (A) (A)
                 (A) (A) (A) (A) (A) (A) (A) (A) (A) (A) (A) (A)
                 (A) (A) (A) (A) (A) (A) (A) (A) (A) (A) (A) (A)
                 (A) (A) (A) (A) (A) (A) (A) (A) (A) (A) (A) (A)
                 (A) (A) (A) (A) (A) (A) (A) (A) (A) (A) (A) (A)
                 (A) (A) (A) (A) (A) (A) (A) (A) (A) (A) (A) (A)
                 (A) (A) (A) (A) (A) (A) (A) (A) (A) (A) (A) (A)
                 (A) (A) (A) (A) (A) (A) (A) (A) (A) (A) (A) (A)
                 (A) (A) (A) (A) (A) (A) (A) (A) (A) (A) (A) (A)
                 (A) (A) (A) (A) (A) (A) (A) (A) (A) (A) (A) (A)
                 (A) (A) (A) (A) (A) (A) (A) (A) (A) (A) (A) (A)
                 (A) (A) (A) (A) (A) (A) (A) (A) (A) (A) (A) (A)
                 (A) (A) (A) (A) (A) (A) (A) (A) (A) (A) (A) (A)
                 (A) (A) (A) (A) (A) (A) (A) (A) (A) (A) (A) (A)
                 (A) (A) (A) (A) (A) (A) (A) (A) (A) (A) (A) (A)
                 (A) (A) (A) (A) (A) (A) (A) (A) (A) (A) (A) (A)
                 (A) (A) (A) (A) (A) (A) (A) (A) (A) (A) (A) (A)
                 (A) (A) (A) (A) (A) (A) (A) (A) (A) (A) (A) (A)
                 (A) (A) (A) (A) (A) (A) (A) (A) (A) (A) (A) (A)
                 (A) (A) (A) (A) (A)
 The electronic state is 1-A.
 Alpha  occ. eigenvalues --  -25.28122 -19.64265 -19.59543 -19.59507 -19.59337
 Alpha  occ. eigenvalues --  -14.77910 -14.77879 -14.77678 -10.63592 -10.63560
 Alpha  occ. eigenvalues --  -10.63356 -10.62770 -10.61926 -10.53919 -10.53899
 Alpha  occ. eigenvalues --  -10.53792 -10.53633 -10.53625 -10.53093 -10.53082
 Alpha  occ. eigenvalues --  -10.52288  -1.38752  -1.19448  -1.16584  -1.16548
 Alpha  occ. eigenvalues --   -1.16374  -1.04367  -1.04331  -1.04227  -1.04081
 Alpha  occ. eigenvalues --   -0.90429  -0.89638  -0.83744  -0.83722  -0.83549
 Alpha  occ. eigenvalues --   -0.75294  -0.75189  -0.73704  -0.70007  -0.69934
 Alpha  occ. eigenvalues --   -0.69746  -0.67917  -0.65390  -0.65307  -0.65112
 Alpha  occ. eigenvalues --   -0.60788  -0.60751  -0.60259  -0.59305  -0.55211
 Alpha  occ. eigenvalues --   -0.55056  -0.54819  -0.54683  -0.54552  -0.54311
 Alpha  occ. eigenvalues --   -0.54209  -0.54060  -0.53498  -0.52347  -0.49939
 Alpha  occ. eigenvalues --   -0.49843  -0.49750  -0.49073  -0.47874  -0.47767
 Alpha  occ. eigenvalues --   -0.47623  -0.47491  -0.46601  -0.46566  -0.46406
 Alpha  occ. eigenvalues --   -0.45386  -0.43122  -0.35428  -0.34923  -0.34720
 Alpha  occ. eigenvalues --   -0.34689  -0.34498  -0.34160  -0.32850  -0.32801
 Alpha  occ. eigenvalues --   -0.32622
 Alpha virt. eigenvalues --   -0.00999  -0.00951  -0.00046   0.00143   0.00416
 Alpha virt. eigenvalues --    0.01373   0.01772   0.01857   0.01927   0.02205
 Alpha virt. eigenvalues --    0.02291   0.02658   0.03061   0.03432   0.04083
 Alpha virt. eigenvalues --    0.04246   0.04495   0.04766   0.04983   0.05183
 Alpha virt. eigenvalues --    0.05556   0.05858   0.05886   0.06345   0.06569
 Alpha virt. eigenvalues --    0.07176   0.07464   0.07546   0.07823   0.08263
 Alpha virt. eigenvalues --    0.08401   0.08803   0.09040   0.09271   0.10249
 Alpha virt. eigenvalues --    0.10688   0.11187   0.11630   0.11961   0.12027
 Alpha virt. eigenvalues --    0.12285   0.12599   0.12759   0.13147   0.13349
 Alpha virt. eigenvalues --    0.13661   0.13793   0.14121   0.14256   0.14680
 Alpha virt. eigenvalues --    0.14915   0.14939   0.15280   0.15497   0.15774
 Alpha virt. eigenvalues --    0.16021   0.16210   0.16340   0.16882   0.17066
 Alpha virt. eigenvalues --    0.17175   0.17481   0.17826   0.17958   0.18334
 Alpha virt. eigenvalues --    0.18559   0.18816   0.19097   0.19576   0.19811
 Alpha virt. eigenvalues --    0.20262   0.20608   0.21028   0.21508   0.21568
 Alpha virt. eigenvalues --    0.21856   0.22262   0.22705   0.23052   0.23403
 Alpha virt. eigenvalues --    0.23879   0.24472   0.24608   0.25177   0.25424
 Alpha virt. eigenvalues --    0.25782   0.26254   0.26336   0.26750   0.27144
 Alpha virt. eigenvalues --    0.27242   0.27602   0.27967   0.28262   0.28525
 Alpha virt. eigenvalues --    0.29096   0.29275   0.29742   0.29906   0.30349
 Alpha virt. eigenvalues --    0.30686   0.30886   0.31296   0.31713   0.32172
 Alpha virt. eigenvalues --    0.32316   0.32883   0.33587   0.33683   0.34129
 Alpha virt. eigenvalues --    0.34386   0.34890   0.35134   0.35343   0.36098
 Alpha virt. eigenvalues --    0.36295   0.36432   0.36571   0.36826   0.37026
 Alpha virt. eigenvalues --    0.37385   0.38218   0.38319   0.39162   0.39288
 Alpha virt. eigenvalues --    0.39577   0.40342   0.40830   0.41326   0.41767
 Alpha virt. eigenvalues --    0.42074   0.42892   0.43536   0.44020   0.44384
 Alpha virt. eigenvalues --    0.45162   0.45503   0.45962   0.46627   0.46718
 Alpha virt. eigenvalues --    0.48534   0.48971   0.49563   0.49744   0.50523
 Alpha virt. eigenvalues --    0.50749   0.51744   0.52730   0.54177   0.55803
 Alpha virt. eigenvalues --    0.56829   0.57341   0.58603   0.59161   0.59446
 Alpha virt. eigenvalues --    0.59756   0.60239   0.60766   0.61366   0.61705
 Alpha virt. eigenvalues --    0.62406   0.62984   0.63248   0.63627   0.64135
 Alpha virt. eigenvalues --    0.64628   0.64969   0.65125   0.66013   0.66464
 Alpha virt. eigenvalues --    0.66678   0.67524   0.68101   0.69388   0.69719
 Alpha virt. eigenvalues --    0.70226   0.71645   0.72173   0.72282   0.73319
 Alpha virt. eigenvalues --    0.74001   0.74493   0.74881   0.74999   0.75364
 Alpha virt. eigenvalues --    0.75663   0.76271   0.77093   0.78101   0.78508
 Alpha virt. eigenvalues --    0.79402   0.79627   0.80307   0.80829   0.81099
 Alpha virt. eigenvalues --    0.81622   0.82212   0.82584   0.83295   0.84188
 Alpha virt. eigenvalues --    0.84817   0.85310   0.88017   0.88432   0.88487
 Alpha virt. eigenvalues --    0.88574   0.90086   0.90258   0.92323   0.93092
 Alpha virt. eigenvalues --    0.93980   0.95616   0.96059   0.96528   0.97838
 Alpha virt. eigenvalues --    0.99114   1.00038   1.00406   1.01164   1.01503
 Alpha virt. eigenvalues --    1.01977   1.02372   1.02933   1.03850   1.04190
 Alpha virt. eigenvalues --    1.06370   1.07903   1.09386   1.09648   1.10378
 Alpha virt. eigenvalues --    1.10990   1.11398   1.12207   1.13201   1.14171
 Alpha virt. eigenvalues --    1.15128   1.15703   1.16397   1.17291   1.17635
 Alpha virt. eigenvalues --    1.19033   1.19178   1.19921   1.21089   1.21361
 Alpha virt. eigenvalues --    1.22078   1.22475   1.22998   1.23399   1.24000
 Alpha virt. eigenvalues --    1.25207   1.26614   1.27288   1.28005   1.28618
 Alpha virt. eigenvalues --    1.28946   1.30104   1.30974   1.33005   1.35015
 Alpha virt. eigenvalues --    1.35743   1.36556   1.37364   1.37858   1.39179
 Alpha virt. eigenvalues --    1.40232   1.42092   1.47228   1.50407   1.53001
 Alpha virt. eigenvalues --    1.55044   1.55910   1.56243   1.56981   1.57538
 Alpha virt. eigenvalues --    1.57798   1.58112   1.58746   1.58932   1.59037
 Alpha virt. eigenvalues --    1.61994   1.62808   1.63096   1.63720   1.63810
 Alpha virt. eigenvalues --    1.64285   1.64544   1.65378   1.65958   1.66917
 Alpha virt. eigenvalues --    1.67346   1.68200   1.68400   1.69220   1.69592
 Alpha virt. eigenvalues --    1.71001   1.72115   1.72245   1.72861   1.73328
 Alpha virt. eigenvalues --    1.74200   1.75136   1.75316   1.75815   1.76645
 Alpha virt. eigenvalues --    1.77090   1.77564   1.78093   1.79098   1.82083
 Alpha virt. eigenvalues --    1.82409   1.82827   1.83344   1.83718   1.84446
 Alpha virt. eigenvalues --    1.84978   1.85631   1.85789   1.86102   1.86300
 Alpha virt. eigenvalues --    1.87405   1.88528   1.91108   1.91760   1.92360
 Alpha virt. eigenvalues --    1.92587   1.93204   1.95083   1.97478   1.98207
 Alpha virt. eigenvalues --    1.99748   2.00498   2.01685   2.04022   2.04666
 Alpha virt. eigenvalues --    2.05421   2.05498   2.05633   2.06729   2.08255
 Alpha virt. eigenvalues --    2.09973   2.13710   2.14138   2.14293   2.14768
 Alpha virt. eigenvalues --    2.16097   2.16422   2.17229   2.18233   2.19344
 Alpha virt. eigenvalues --    2.20537   2.22037   2.22342   2.26736   2.27083
 Alpha virt. eigenvalues --    2.27438   2.32532   2.39655   2.41085   2.41507
 Alpha virt. eigenvalues --    2.41797   2.42089   2.42212   2.42442   2.43182
 Alpha virt. eigenvalues --    2.46565   2.49734   2.51109   2.54160   2.55518
 Alpha virt. eigenvalues --    2.56390   2.56706   2.56956   2.57484   2.58007
 Alpha virt. eigenvalues --    2.58986   2.60757   2.61318   2.62128   2.62971
 Alpha virt. eigenvalues --    2.63142   2.64043   2.65593   2.66186   2.67373
 Alpha virt. eigenvalues --    2.68315   2.69026   2.69569   2.70820   2.70918
 Alpha virt. eigenvalues --    2.71927   2.72477   2.74308   2.74784   2.75360
 Alpha virt. eigenvalues --    2.76124   2.77471   2.77823   2.79003   2.80388
 Alpha virt. eigenvalues --    2.80726   2.81156   2.81713   2.82267   2.84383
 Alpha virt. eigenvalues --    2.84658   2.84999   2.86234   2.86654   2.88817
 Alpha virt. eigenvalues --    2.89798   2.89933   2.90205   2.91636   2.91840
 Alpha virt. eigenvalues --    2.94582   2.94958   2.95077   2.95443   2.95765
 Alpha virt. eigenvalues --    2.97278   2.98059   2.99536   3.00367   3.00705
 Alpha virt. eigenvalues --    3.00789   3.01573   3.03083   3.03730   3.04770
 Alpha virt. eigenvalues --    3.05394   3.07051   3.07971   3.08353   3.09969
 Alpha virt. eigenvalues --    3.11772   3.25100   3.27148   3.27975   3.28449
 Alpha virt. eigenvalues --    3.31105   3.36835   3.40409   3.41976   3.42108
 Alpha virt. eigenvalues --    3.42145   3.44119   3.44792   3.45511   3.46036
 Alpha virt. eigenvalues --    3.56277   3.60388   3.62132   3.63476   3.63792
 Alpha virt. eigenvalues --    3.64590   3.65471   3.71521   3.71767   3.72335
 Alpha virt. eigenvalues --    3.76962   3.77254   3.87090   3.87411   3.88187
 Alpha virt. eigenvalues --    3.88382   3.92311   3.96089   3.97520   3.97843
 Alpha virt. eigenvalues --    3.99559   4.00912   4.02436   4.05618   4.06106
 Alpha virt. eigenvalues --    4.06591   4.09551   4.10772   4.10980   4.11263
 Alpha virt. eigenvalues --    4.11487   4.11686   4.11821   4.13766   4.16628
 Alpha virt. eigenvalues --    4.19702   4.26186   4.27358   4.36201   4.92430
 Alpha virt. eigenvalues --    4.95033   4.98374   4.98633   5.03172   5.06599
 Alpha virt. eigenvalues --    5.06735   5.07217   5.16636   5.18277   5.20066
 Alpha virt. eigenvalues --    5.20178   5.26121   5.33876   5.34600   5.34987
 Alpha virt. eigenvalues --    5.87170   5.87511   5.88031   5.88716   6.64026
 Alpha virt. eigenvalues --    6.68914   6.93616  23.75402  24.09569  24.09756
 Alpha virt. eigenvalues --   24.10089  24.18668  24.26652  24.28126  24.28184
 Alpha virt. eigenvalues --   24.28213  24.31413  24.53315  24.56441  24.72441
 Alpha virt. eigenvalues --   35.71283  35.71371  35.73728  50.08103  50.12099
 Alpha virt. eigenvalues --   50.12677  50.12904  66.98230
          Condensed to atoms (all electrons):
               1          2          3          4          5          6
     1  C    8.400331  -0.186038  -1.313346   0.445318  -1.708906   0.299414
     2  C   -0.186038   9.277783  -2.394910  -1.001683   2.182506  -2.197873
     3  C   -1.313346  -2.394910   8.957600   0.544692  -1.674284   1.882939
     4  C    0.445318  -1.001683   0.544692   6.522429   0.541852  -1.011582
     5  C   -1.708906   2.182506  -1.674284   0.541852   9.748706  -2.946485
     6  C    0.299414  -2.197873   1.882939  -1.011582  -2.946485   9.554607
     7  F    0.281736  -0.163474   0.039363   0.016370   0.070235  -0.165793
     8  H   -0.159342   0.498081  -0.260288   0.026029   0.000651  -0.110600
     9  H    0.017889  -0.066604   0.462432  -0.086478  -0.018685   0.059437
    10  H   -0.002746  -0.023979  -0.045628   0.497341  -0.049126  -0.029710
    11  H    0.020203   0.054066  -0.019846  -0.093421   0.459944  -0.056652
    12  H   -0.125344  -0.114172   0.020437   0.046605  -0.279153   0.499664
    13  O   -0.019946  -0.006276  -0.001676   0.000322  -0.001228  -0.004871
    14  C    0.005888  -0.000122   0.000294   0.000124   0.000581   0.000788
    15  H    0.000954  -0.000504  -0.000207   0.000079  -0.000237  -0.000685
    16  H   -0.002219   0.000797   0.000198  -0.000064   0.000329   0.000840
    17  H    0.017320  -0.008244  -0.020482   0.019073   0.030366  -0.038491
    18  N   -0.083609   0.027665   0.020067  -0.002323   0.036627   0.020068
    19  C    0.047220  -0.013746   0.003129  -0.001713  -0.005952   0.002665
    20  O    0.005077  -0.001481  -0.000243   0.000159  -0.002031  -0.000976
    21  C    0.020056   0.006637  -0.029212  -0.002084   0.009337  -0.013322
    22  H    0.007558  -0.000507  -0.002591  -0.000252  -0.000421  -0.001845
    23  H    0.001581  -0.004259   0.000380   0.000310  -0.000607   0.000809
    24  H   -0.000522   0.001760   0.005885   0.001762  -0.000379   0.003002
    25  H    0.097467  -0.024801   0.000706   0.007852  -0.051900  -0.014191
    26  H   -0.066886   0.033701  -0.086589  -0.026250   0.067461   0.047331
    27  N   -0.043972  -0.052117   0.010953   0.011648  -0.003703  -0.008197
    28  C    0.036315   0.012743  -0.002086  -0.002391   0.006863  -0.016651
    29  O    0.003955   0.007927  -0.003621   0.000017   0.000090  -0.000354
    30  C    0.001947  -0.004090   0.027040   0.007618  -0.009925  -0.005730
    31  H    0.003794   0.001188  -0.003489  -0.000267   0.000208  -0.000984
    32  H   -0.009717  -0.007039   0.001817   0.000480   0.002351  -0.000120
    33  H    0.010422   0.019452   0.002517  -0.000676  -0.003200   0.002276
    34  H    0.050818   0.042459  -0.051701  -0.006421   0.003698  -0.009276
    35  H   -0.026562   0.009145   0.087162  -0.027402  -0.156903   0.020180
    36  N   -0.036042  -0.004850  -0.007878   0.016205   0.018812  -0.051329
    37  C    0.041915  -0.015231   0.004176  -0.002504  -0.005238   0.014526
    38  O    0.003798  -0.000344  -0.000044  -0.000388  -0.004592   0.008009
    39  C   -0.007510   0.000575  -0.013087   0.008406   0.045213   0.001377
    40  H    0.003443  -0.000866   0.000303  -0.000605  -0.004026   0.002114
    41  H    0.009529   0.001786  -0.002788  -0.001004   0.001915   0.019352
    42  H   -0.009715   0.000136   0.002162   0.000967   0.002477  -0.007063
    43  H    0.017868   0.000225  -0.002515  -0.015858  -0.028648   0.049915
               7          8          9         10         11         12
     1  C    0.281736  -0.159342   0.017889  -0.002746   0.020203  -0.125344
     2  C   -0.163474   0.498081  -0.066604  -0.023979   0.054066  -0.114172
     3  C    0.039363  -0.260288   0.462432  -0.045628  -0.019846   0.020437
     4  C    0.016370   0.026029  -0.086478   0.497341  -0.093421   0.046605
     5  C    0.070235   0.000651  -0.018685  -0.049126   0.459944  -0.279153
     6  C   -0.165793  -0.110600   0.059437  -0.029710  -0.056652   0.499664
     7  F    9.042598  -0.021464  -0.000683   0.000932   0.000234  -0.023730
     8  H   -0.021464   1.173674  -0.092374   0.016345  -0.008454  -0.000115
     9  H   -0.000683  -0.092374   0.491157  -0.022022   0.005387  -0.006195
    10  H    0.000932   0.016345  -0.022022   0.483812  -0.021590   0.013638
    11  H    0.000234  -0.008454   0.005387  -0.021590   0.485907  -0.078789
    12  H   -0.023730  -0.000115  -0.006195   0.013638  -0.078789   1.036118
    13  O    0.005446  -0.001179  -0.000034   0.000014  -0.000020  -0.000546
    14  C    0.001710   0.001383  -0.000002   0.000011   0.000021   0.000097
    15  H   -0.000249  -0.000260   0.000002   0.000000  -0.000001   0.000152
    16  H   -0.000538  -0.000281   0.000004  -0.000001   0.000008  -0.000560
    17  H    0.064393  -0.064398   0.001552  -0.002250   0.003710  -0.040639
    18  N   -0.036943   0.000199   0.000574   0.000098   0.000768   0.001425
    19  C   -0.006771   0.013050  -0.000155   0.000289  -0.000288  -0.000481
    20  O   -0.000111   0.000509  -0.000027  -0.000005  -0.000005  -0.000920
    21  C   -0.006099   0.026828  -0.001360   0.000380  -0.000383   0.004735
    22  H   -0.000581   0.003526  -0.000050   0.000012  -0.000021  -0.000400
    23  H    0.000203   0.008079  -0.000387   0.000070  -0.000079   0.000178
    24  H    0.000699  -0.021117   0.000917  -0.000173   0.000171   0.001152
    25  H   -0.006274   0.002741   0.000087  -0.000047  -0.001566   0.005851
    26  H    0.007518  -0.094462   0.009425  -0.000666  -0.002055   0.073521
    27  N   -0.011208   0.127099  -0.006968   0.000713  -0.000320  -0.007428
    28  C    0.002052  -0.041072   0.001799  -0.000565   0.000728  -0.007851
    29  O    0.000052  -0.018074   0.000720  -0.000015   0.000002   0.000050
    30  C    0.006010   0.024444  -0.002046   0.000106   0.000258  -0.007861
    31  H   -0.000458   0.000547  -0.000378   0.000033   0.000007  -0.000091
    32  H    0.000415   0.014687  -0.000509   0.000001   0.000041  -0.001654
    33  H    0.000168  -0.031533   0.001950  -0.000136   0.000028   0.000375
    34  H   -0.003292  -0.077926   0.002948  -0.000286   0.000302  -0.001252
    35  H    0.006386   0.061434  -0.001040  -0.001268   0.002928  -0.069524
    36  N   -0.013810  -0.005048  -0.000607   0.000700  -0.004806   0.097643
    37  C    0.002297  -0.006518   0.000596  -0.000416   0.001312  -0.023458
    38  O    0.000098   0.000037  -0.000001  -0.000018   0.000640  -0.016867
    39  C    0.006175  -0.005489   0.000126   0.000175  -0.000163   0.011057
    40  H   -0.000364  -0.000143   0.000017   0.000038  -0.000415   0.001850
    41  H   -0.000160   0.000509   0.000012  -0.000097   0.001694  -0.028268
    42  H    0.000521  -0.001517   0.000047   0.000000  -0.000462   0.014059
    43  H   -0.001027  -0.001303   0.000079  -0.000174   0.003851  -0.071017
              13         14         15         16         17         18
     1  C   -0.019946   0.005888   0.000954  -0.002219   0.017320  -0.083609
     2  C   -0.006276  -0.000122  -0.000504   0.000797  -0.008244   0.027665
     3  C   -0.001676   0.000294  -0.000207   0.000198  -0.020482   0.020067
     4  C    0.000322   0.000124   0.000079  -0.000064   0.019073  -0.002323
     5  C   -0.001228   0.000581  -0.000237   0.000329   0.030366   0.036627
     6  C   -0.004871   0.000788  -0.000685   0.000840  -0.038491   0.020068
     7  F    0.005446   0.001710  -0.000249  -0.000538   0.064393  -0.036943
     8  H   -0.001179   0.001383  -0.000260  -0.000281  -0.064398   0.000199
     9  H   -0.000034  -0.000002   0.000002   0.000004   0.001552   0.000574
    10  H    0.000014   0.000011   0.000000  -0.000001  -0.002250   0.000098
    11  H   -0.000020   0.000021  -0.000001   0.000008   0.003710   0.000768
    12  H   -0.000546   0.000097   0.000152  -0.000560  -0.040639   0.001425
    13  O    8.169222   0.225110  -0.092738  -0.091034   0.032107  -0.002160
    14  C    0.225110   4.845403   0.422192   0.415183  -0.008399   0.000918
    15  H   -0.092738   0.422192   0.670362  -0.125344   0.007729   0.000626
    16  H   -0.091034   0.415183  -0.125344   0.674799  -0.001849   0.001126
    17  H    0.032107  -0.008399   0.007729  -0.001849   1.136771   0.353763
    18  N   -0.002160   0.000918   0.000626   0.001126   0.353763   7.177514
    19  C   -0.003578   0.001310  -0.001255  -0.000060  -0.284993   0.177728
    20  O    0.000175  -0.000088  -0.000058  -0.000042   0.001619  -0.182288
    21  C   -0.001373   0.001225  -0.001344   0.000309  -0.120625   0.166194
    22  H    0.000033   0.000733  -0.000525   0.000012  -0.054965  -0.119855
    23  H   -0.000942   0.000925  -0.000802   0.000049  -0.011300  -0.042683
    24  H   -0.000017  -0.000920   0.000498  -0.000127   0.036659  -0.038940
    25  H   -0.001520   0.000293  -0.000455  -0.000993  -0.078504  -0.356213
    26  H    0.059453  -0.012694  -0.000238  -0.000958  -0.131223  -0.008521
    27  N   -0.008643   0.003674  -0.000351   0.000106   0.012736   0.002851
    28  C   -0.007488   0.000304   0.000329   0.000033   0.018250   0.003415
    29  O    0.000183  -0.000053   0.000060  -0.000062   0.000059  -0.000040
    30  C   -0.009469   0.001745  -0.000711   0.001373   0.014405   0.000665
    31  H   -0.000008   0.000336   0.000071  -0.000141   0.001283  -0.000037
    32  H   -0.000038  -0.000115   0.000040  -0.000833   0.000002   0.000179
    33  H   -0.000493  -0.000552  -0.000119   0.000423   0.000723  -0.000008
    34  H    0.000735  -0.003426   0.000488   0.000252   0.029998  -0.000764
    35  H    0.054715  -0.013560   0.000720   0.000880  -0.084519   0.001070
    36  N   -0.008285   0.004782  -0.000509  -0.000158  -0.000148   0.002215
    37  C   -0.006415   0.001039   0.000145  -0.000412   0.002661  -0.001960
    38  O    0.000177  -0.000141   0.000071  -0.000052   0.000814  -0.000006
    39  C   -0.008495   0.001892  -0.000771   0.000866   0.008507  -0.000325
    40  H    0.000056   0.000275   0.000091  -0.000158   0.001324  -0.000111
    41  H   -0.000556  -0.000519  -0.000155   0.000435   0.000010   0.000071
    42  H    0.000085   0.000251  -0.000032  -0.000930  -0.001107  -0.000069
    43  H    0.000383  -0.004674   0.000359   0.001286   0.046087   0.009359
              19         20         21         22         23         24
     1  C    0.047220   0.005077   0.020056   0.007558   0.001581  -0.000522
     2  C   -0.013746  -0.001481   0.006637  -0.000507  -0.004259   0.001760
     3  C    0.003129  -0.000243  -0.029212  -0.002591   0.000380   0.005885
     4  C   -0.001713   0.000159  -0.002084  -0.000252   0.000310   0.001762
     5  C   -0.005952  -0.002031   0.009337  -0.000421  -0.000607  -0.000379
     6  C    0.002665  -0.000976  -0.013322  -0.001845   0.000809   0.003002
     7  F   -0.006771  -0.000111  -0.006099  -0.000581   0.000203   0.000699
     8  H    0.013050   0.000509   0.026828   0.003526   0.008079  -0.021117
     9  H   -0.000155  -0.000027  -0.001360  -0.000050  -0.000387   0.000917
    10  H    0.000289  -0.000005   0.000380   0.000012   0.000070  -0.000173
    11  H   -0.000288  -0.000005  -0.000383  -0.000021  -0.000079   0.000171
    12  H   -0.000481  -0.000920   0.004735  -0.000400   0.000178   0.001152
    13  O   -0.003578   0.000175  -0.001373   0.000033  -0.000942  -0.000017
    14  C    0.001310  -0.000088   0.001225   0.000733   0.000925  -0.000920
    15  H   -0.001255  -0.000058  -0.001344  -0.000525  -0.000802   0.000498
    16  H   -0.000060  -0.000042   0.000309   0.000012   0.000049  -0.000127
    17  H   -0.284993   0.001619  -0.120625  -0.054965  -0.011300   0.036659
    18  N    0.177728  -0.182288   0.166194  -0.119855  -0.042683  -0.038940
    19  C    5.093835   0.532269  -0.030592   0.043294  -0.001940  -0.021206
    20  O    0.532269   8.198190  -0.040432   0.042097  -0.002471  -0.005712
    21  C   -0.030592  -0.040432   5.103007   0.455799   0.415530   0.397431
    22  H    0.043294   0.042097   0.455799   0.489610  -0.026545  -0.034670
    23  H   -0.001940  -0.002471   0.415530  -0.026545   0.555900  -0.068320
    24  H   -0.021206  -0.005712   0.397431  -0.034670  -0.068320   0.571385
    25  H    0.327388  -0.057865  -0.016790   0.030232  -0.002523  -0.008232
    26  H    0.018551  -0.000231   0.008994  -0.000566   0.008479   0.001339
    27  N   -0.002328   0.000023   0.002236   0.000323  -0.000064  -0.000979
    28  C   -0.001876   0.000022  -0.000599   0.000825  -0.003047  -0.000446
    29  O   -0.000017   0.000000   0.000512   0.000054   0.000057  -0.000031
    30  C   -0.001021   0.000004  -0.001150   0.000009  -0.000178  -0.000474
    31  H   -0.000058   0.000000  -0.000345  -0.000030  -0.000020  -0.000006
    32  H   -0.000026  -0.000001   0.000095   0.000015  -0.000020  -0.000045
    33  H   -0.000070  -0.000000  -0.000078  -0.000007  -0.000030   0.000084
    34  H   -0.004103  -0.000100  -0.015118  -0.003241  -0.004145   0.006423
    35  H    0.006759   0.000205   0.008645   0.001407  -0.001114  -0.001528
    36  N   -0.002277   0.000053  -0.000594  -0.000063  -0.000128   0.000266
    37  C   -0.007669  -0.000091  -0.000072   0.000071   0.000071   0.000121
    38  O   -0.000268  -0.000001  -0.000044  -0.000004   0.000001   0.000003
    39  C   -0.000786  -0.000006  -0.000086  -0.000025  -0.000050   0.000103
    40  H   -0.000003  -0.000003  -0.000030  -0.000002   0.000001   0.000000
    41  H    0.000062   0.000001  -0.000035  -0.000002   0.000010  -0.000004
    42  H   -0.000000   0.000007   0.000030  -0.000002   0.000007   0.000012
    43  H    0.020421   0.001396  -0.003790  -0.001039   0.000003   0.000409
              25         26         27         28         29         30
     1  C    0.097467  -0.066886  -0.043972   0.036315   0.003955   0.001947
     2  C   -0.024801   0.033701  -0.052117   0.012743   0.007927  -0.004090
     3  C    0.000706  -0.086589   0.010953  -0.002086  -0.003621   0.027040
     4  C    0.007852  -0.026250   0.011648  -0.002391   0.000017   0.007618
     5  C   -0.051900   0.067461  -0.003703   0.006863   0.000090  -0.009925
     6  C   -0.014191   0.047331  -0.008197  -0.016651  -0.000354  -0.005730
     7  F   -0.006274   0.007518  -0.011208   0.002052   0.000052   0.006010
     8  H    0.002741  -0.094462   0.127099  -0.041072  -0.018074   0.024444
     9  H    0.000087   0.009425  -0.006968   0.001799   0.000720  -0.002046
    10  H   -0.000047  -0.000666   0.000713  -0.000565  -0.000015   0.000106
    11  H   -0.001566  -0.002055  -0.000320   0.000728   0.000002   0.000258
    12  H    0.005851   0.073521  -0.007428  -0.007851   0.000050  -0.007861
    13  O   -0.001520   0.059453  -0.008643  -0.007488   0.000183  -0.009469
    14  C    0.000293  -0.012694   0.003674   0.000304  -0.000053   0.001745
    15  H   -0.000455  -0.000238  -0.000351   0.000329   0.000060  -0.000711
    16  H   -0.000993  -0.000958   0.000106   0.000033  -0.000062   0.001373
    17  H   -0.078504  -0.131223   0.012736   0.018250   0.000059   0.014405
    18  N   -0.356213  -0.008521   0.002851   0.003415  -0.000040   0.000665
    19  C    0.327388   0.018551  -0.002328  -0.001876  -0.000017  -0.001021
    20  O   -0.057865  -0.000231   0.000023   0.000022   0.000000   0.000004
    21  C   -0.016790   0.008994   0.002236  -0.000599   0.000512  -0.001150
    22  H    0.030232  -0.000566   0.000323   0.000825   0.000054   0.000009
    23  H   -0.002523   0.008479  -0.000064  -0.003047   0.000057  -0.000178
    24  H   -0.008232   0.001339  -0.000979  -0.000446  -0.000031  -0.000474
    25  H    1.010580   0.002665  -0.000330  -0.000503   0.000011  -0.000327
    26  H    0.002665   1.701331   0.194126  -0.345106   0.001909  -0.284118
    27  N   -0.000330   0.194126   7.251537   0.132373  -0.181001   0.207433
    28  C   -0.000503  -0.345106   0.132373   5.152149   0.523861  -0.017778
    29  O    0.000011   0.001909  -0.181001   0.523861   8.200335  -0.041563
    30  C   -0.000327  -0.284118   0.207433  -0.017778  -0.041563   5.161109
    31  H   -0.000011  -0.033878  -0.114509   0.036895   0.040077   0.452013
    32  H   -0.000128   0.004253  -0.035046  -0.014418  -0.004591   0.412233
    33  H   -0.000002   0.013453  -0.059967  -0.000523  -0.002444   0.403733
    34  H   -0.000153  -0.012259  -0.343436   0.385439  -0.038902  -0.029431
    35  H    0.020629  -0.192357   0.011112   0.020233  -0.000140   0.014147
    36  N    0.011102   0.005204   0.002125  -0.000022   0.000039   0.002334
    37  C    0.024151   0.018263  -0.000420  -0.001369   0.000000  -0.001629
    38  O    0.001563  -0.000041   0.000041   0.000003   0.000000  -0.000032
    39  C   -0.000626   0.015884   0.001412  -0.002169  -0.000020  -0.000669
    40  H   -0.000906  -0.000063   0.000149  -0.000197  -0.000004  -0.000392
    41  H    0.000077  -0.001715  -0.000426   0.000368   0.000015   0.001328
    42  H    0.000597   0.006599  -0.000678  -0.000097   0.000047  -0.000387
    43  H   -0.094035  -0.003558   0.000864   0.000046  -0.000009   0.000120
              31         32         33         34         35         36
     1  C    0.003794  -0.009717   0.010422   0.050818  -0.026562  -0.036042
     2  C    0.001188  -0.007039   0.019452   0.042459   0.009145  -0.004850
     3  C   -0.003489   0.001817   0.002517  -0.051701   0.087162  -0.007878
     4  C   -0.000267   0.000480  -0.000676  -0.006421  -0.027402   0.016205
     5  C    0.000208   0.002351  -0.003200   0.003698  -0.156903   0.018812
     6  C   -0.000984  -0.000120   0.002276  -0.009276   0.020180  -0.051329
     7  F   -0.000458   0.000415   0.000168  -0.003292   0.006386  -0.013810
     8  H    0.000547   0.014687  -0.031533  -0.077926   0.061434  -0.005048
     9  H   -0.000378  -0.000509   0.001950   0.002948  -0.001040  -0.000607
    10  H    0.000033   0.000001  -0.000136  -0.000286  -0.001268   0.000700
    11  H    0.000007   0.000041   0.000028   0.000302   0.002928  -0.004806
    12  H   -0.000091  -0.001654   0.000375  -0.001252  -0.069524   0.097643
    13  O   -0.000008  -0.000038  -0.000493   0.000735   0.054715  -0.008285
    14  C    0.000336  -0.000115  -0.000552  -0.003426  -0.013560   0.004782
    15  H    0.000071   0.000040  -0.000119   0.000488   0.000720  -0.000509
    16  H   -0.000141  -0.000833   0.000423   0.000252   0.000880  -0.000158
    17  H    0.001283   0.000002   0.000723   0.029998  -0.084519  -0.000148
    18  N   -0.000037   0.000179  -0.000008  -0.000764   0.001070   0.002215
    19  C   -0.000058  -0.000026  -0.000070  -0.004103   0.006759  -0.002277
    20  O    0.000000  -0.000001  -0.000000  -0.000100   0.000205   0.000053
    21  C   -0.000345   0.000095  -0.000078  -0.015118   0.008645  -0.000594
    22  H   -0.000030   0.000015  -0.000007  -0.003241   0.001407  -0.000063
    23  H   -0.000020  -0.000020  -0.000030  -0.004145  -0.001114  -0.000128
    24  H   -0.000006  -0.000045   0.000084   0.006423  -0.001528   0.000266
    25  H   -0.000011  -0.000128  -0.000002  -0.000153   0.020629   0.011102
    26  H   -0.033878   0.004253   0.013453  -0.012259  -0.192357   0.005204
    27  N   -0.114509  -0.035046  -0.059967  -0.343436   0.011112   0.002125
    28  C    0.036895  -0.014418  -0.000523   0.385439   0.020233  -0.000022
    29  O    0.040077  -0.004591  -0.002444  -0.038902  -0.000140   0.000039
    30  C    0.452013   0.412233   0.403733  -0.029431   0.014147   0.002334
    31  H    0.485289  -0.031830  -0.029020   0.022930  -0.000608   0.000198
    32  H   -0.031830   0.563387  -0.069604  -0.007455   0.005688  -0.000698
    33  H   -0.029020  -0.069604   0.571609  -0.000256  -0.000817  -0.000350
    34  H    0.022930  -0.007455  -0.000256   0.909922  -0.001286   0.000796
    35  H   -0.000608   0.005688  -0.000817  -0.001286   1.643611   0.238519
    36  N    0.000198  -0.000698  -0.000350   0.000796   0.238519   7.245841
    37  C   -0.000142   0.000087   0.000339  -0.000219  -0.322815   0.167505
    38  O   -0.000004   0.000041   0.000019  -0.000003  -0.000578  -0.189883
    39  C   -0.000316  -0.000455   0.001216  -0.000238  -0.279047   0.203280
    40  H   -0.000093   0.000260   0.000285  -0.000091  -0.037577  -0.116598
    41  H    0.000274   0.001753  -0.002473   0.000145   0.019707  -0.058473
    42  H    0.000262  -0.004532   0.001608   0.000300   0.000417  -0.034787
    43  H   -0.000079   0.000532   0.000171  -0.000250  -0.039825  -0.387165
              37         38         39         40         41         42
     1  C    0.041915   0.003798  -0.007510   0.003443   0.009529  -0.009715
     2  C   -0.015231  -0.000344   0.000575  -0.000866   0.001786   0.000136
     3  C    0.004176  -0.000044  -0.013087   0.000303  -0.002788   0.002162
     4  C   -0.002504  -0.000388   0.008406  -0.000605  -0.001004   0.000967
     5  C   -0.005238  -0.004592   0.045213  -0.004026   0.001915   0.002477
     6  C    0.014526   0.008009   0.001377   0.002114   0.019352  -0.007063
     7  F    0.002297   0.000098   0.006175  -0.000364  -0.000160   0.000521
     8  H   -0.006518   0.000037  -0.005489  -0.000143   0.000509  -0.001517
     9  H    0.000596  -0.000001   0.000126   0.000017   0.000012   0.000047
    10  H   -0.000416  -0.000018   0.000175   0.000038  -0.000097   0.000000
    11  H    0.001312   0.000640  -0.000163  -0.000415   0.001694  -0.000462
    12  H   -0.023458  -0.016867   0.011057   0.001850  -0.028268   0.014059
    13  O   -0.006415   0.000177  -0.008495   0.000056  -0.000556   0.000085
    14  C    0.001039  -0.000141   0.001892   0.000275  -0.000519   0.000251
    15  H    0.000145   0.000071  -0.000771   0.000091  -0.000155  -0.000032
    16  H   -0.000412  -0.000052   0.000866  -0.000158   0.000435  -0.000930
[...]
    43  H   -0.000024   0.000187   0.000052  -0.000000   0.005267  -0.321505
              37         38         39         40         41         42
     1  C    0.081730   0.000166   0.089404   0.011165   0.016011  -0.012403
     2  C    0.039061  -0.000517   0.083726   0.003925   0.009696  -0.003578
     3  C    0.005371  -0.000030  -0.001865   0.000110  -0.000721   0.000833
     4  C   -0.005671  -0.000147  -0.002183  -0.000705  -0.001591   0.000496
     5  C   -0.015141  -0.002075  -0.006887  -0.002958  -0.004386   0.002204
     6  C   -0.075980   0.006205  -0.134620  -0.010767   0.002820   0.003392
     7  F    0.001145  -0.000016   0.005266  -0.000057   0.000009   0.000534
     8  H   -0.002993   0.000015  -0.002000  -0.000017   0.000331  -0.000821
     9  H    0.000190  -0.000001  -0.000111   0.000002  -0.000005   0.000024
    10  H   -0.000173  -0.000005   0.000117   0.000010  -0.000042  -0.000004
    11  H    0.000446   0.000234   0.000270  -0.000129   0.001031  -0.000241
    12  H   -0.021277  -0.010996   0.003914   0.001527  -0.020165   0.009234
    13  O   -0.005943   0.000076  -0.007430  -0.000099  -0.000308   0.000065
    14  C    0.000021  -0.000086   0.001709   0.000179  -0.000343   0.000132
    15  H    0.000030   0.000041  -0.000435   0.000044  -0.000081   0.000001
    16  H   -0.000040  -0.000005   0.000402  -0.000068   0.000252  -0.000935
    17  H    0.002062   0.000385   0.003525   0.000727  -0.000003  -0.000897
    18  N   -0.002545   0.000016  -0.000467  -0.000062   0.000022  -0.000014
    19  C   -0.006122  -0.000196  -0.000059   0.000065   0.000068  -0.000028
    20  O   -0.000112  -0.000001   0.000002  -0.000002   0.000001   0.000004
    21  C    0.000063  -0.000020   0.000179  -0.000003  -0.000028   0.000036
    22  H    0.000105  -0.000002  -0.000001  -0.000001  -0.000001  -0.000000
    23  H    0.000049   0.000001  -0.000009  -0.000000   0.000006   0.000009
    24  H   -0.000010   0.000002   0.000025  -0.000002  -0.000001   0.000005
    25  H    0.020619   0.001249   0.000343  -0.000659   0.000059   0.000416
    26  H    0.010443  -0.000076   0.017267   0.000156   0.000390   0.002960
    27  N   -0.000542   0.000013   0.000160   0.000119  -0.000279  -0.000384
    28  C   -0.000404   0.000002  -0.001534  -0.000059   0.000078  -0.000086
    29  O    0.000002   0.000000  -0.000008  -0.000001   0.000007   0.000020
    30  C   -0.001184  -0.000012  -0.003015  -0.000273   0.000457   0.000225
    31  H   -0.000040  -0.000001  -0.000266  -0.000031   0.000097   0.000106
    32  H   -0.000020   0.000016   0.000263   0.000117   0.000929  -0.002768
    33  H    0.000109   0.000009   0.000432   0.000099  -0.001344   0.000877
    34  H   -0.000005  -0.000001  -0.000115  -0.000025   0.000040   0.000102
    35  H   -0.215177   0.009106  -0.232411  -0.038799   0.014260   0.013856
    36  N    0.162428  -0.174377   0.147032  -0.111771  -0.056653  -0.039685
    37  C    5.114821   0.519349  -0.039074   0.031118  -0.003089  -0.015011
    38  O    0.519349   8.166560  -0.039906   0.034163  -0.002304  -0.003591
    39  C   -0.039074  -0.039906   5.360693   0.449696   0.390142   0.394632
    40  H    0.031118   0.034163   0.449696   0.478811  -0.026803  -0.030407
    41  H   -0.003089  -0.002304   0.390142  -0.026803   0.559968  -0.062232
    42  H   -0.015011  -0.003591   0.394632  -0.030407  -0.062232   0.558552
    43  H    0.324028  -0.044199  -0.035038   0.018400  -0.001372  -0.006779
              43
     1  C    0.018545
     2  C    0.020235
     3  C    0.001902
     4  C   -0.012255
     5  C   -0.017891
     6  C   -0.003560
     7  F   -0.001828
     8  H   -0.000829
     9  H    0.000024
    10  H   -0.000121
    11  H    0.002360
    12  H   -0.036268
    13  O   -0.000058
    14  C   -0.003411
    15  H    0.000145
    16  H    0.001037
    17  H    0.025775
    18  N    0.008100
    19  C    0.022770
    20  O    0.001122
    21  C   -0.001620
    22  H   -0.000746
    23  H    0.000040
    24  H    0.000273
    25  H   -0.083676
    26  H   -0.000799
    27  N    0.000224
    28  C    0.000069
    29  O   -0.000003
    30  C   -0.000026
    31  H   -0.000024
    32  H    0.000187
    33  H    0.000052
    34  H   -0.000000
    35  H    0.005267
    36  N   -0.321505
    37  C    0.324028
    38  O   -0.044199
    39  C   -0.035038
    40  H    0.018400
    41  H   -0.001372
    42  H   -0.006779
    43  H    0.946399
 Mulliken charges:
               1
     1  C    0.373675
     2  C    0.051430
     3  C   -0.380071
     4  C   -0.561356
     5  C   -0.460069
     6  C    0.165118
     7  F   -0.039999
     8  H    0.059666
     9  H    0.276909
    10  H    0.216821
    11  H    0.275563
    12  H    0.111649
    13  O   -0.231509
    14  C    0.034375
    15  H    0.132651
    16  H    0.137471
    17  H    0.099591
    18  N   -0.067762
    19  C    0.080246
    20  O   -0.461053
    21  C   -0.449865
    22  H    0.191435
    23  H    0.191544
    24  H    0.185360
    25  H    0.184989
    26  H    0.034498
    27  N   -0.044322
    28  C    0.109060
    29  O   -0.464402
    30  C   -0.433724
    31  H    0.192815
    32  H    0.191282
    33  H    0.184716
    34  H    0.167011
    35  H    0.054426
    36  N   -0.049267
    37  C    0.097362
    38  O   -0.459043
    39  C   -0.441767
    40  H    0.193265
    41  H    0.185075
    42  H    0.191152
    43  H    0.175057
 Sum of Mulliken charges =  -0.00000
 Mulliken charges with hydrogens summed into heavy atoms:
               1
     1  C    0.373675
     2  C    0.111096
     3  C   -0.103163
     4  C   -0.344535
     5  C   -0.184506
     6  C    0.276767
     7  F   -0.039999
    13  O   -0.231509
    14  C    0.304497
    18  N    0.031830
    19  C    0.265235
    20  O   -0.461053
    21  C    0.118473
    27  N   -0.009824
    28  C    0.276071
    29  O   -0.464402
    30  C    0.135089
    36  N    0.005159
    37  C    0.272419
    38  O   -0.459043
    39  C    0.127725
 APT charges:
               1
     1  C    0.267094
     2  C   -0.942374
     3  C   -0.331340
     4  C   -0.774586
     5  C   -0.277145
     6  C   -0.878775
     7  F   -0.206387
     8  H    0.293834
     9  H    0.817325
    10  H    1.035096
    11  H    0.807165
    12  H    0.302740
    13  O   -0.742343
    14  C   -0.315950
    15  H    0.550268
    16  H    0.562978
    17  H   -0.340873
    18  N    0.387791
    19  C   -0.536644
    20  O    0.204604
    21  C   -1.611487
    22  H    0.919667
    23  H    0.332042
    24  H    0.342164
    25  H    0.240545
    26  H   -0.398789
    27  N    0.476959
    28  C   -0.561895
    29  O    0.252452
    30  C   -1.632821
    31  H    0.962037
    32  H    0.321075
    33  H    0.330036
    34  H    0.193116
    35  H   -0.394948
    36  N    0.473600
    37  C   -0.594249
    38  O    0.260840
    39  C   -1.637521
    40  H    0.955464
    41  H    0.334146
    42  H    0.326756
    43  H    0.228331
 Sum of APT charges =  -0.00000
 APT charges with hydrogens summed into heavy atoms:
               1
     1  C    0.267094
     2  C   -0.648541
     3  C    0.485986
     4  C    0.260510
     5  C    0.530021
     6  C   -0.576035
     7  F   -0.206387
    13  O   -0.742343
    14  C    0.797296
    18  N    0.046918
    19  C   -0.296099
    20  O    0.204604
    21  C   -0.017613
    27  N    0.078170
    28  C   -0.368779
    29  O    0.252452
    30  C   -0.019672
    36  N    0.078652
    37  C   -0.365918
    38  O    0.260840
    39  C   -0.021155
 Electronic spatial extent (au):  <R**2>=           8928.8180
 Charge=             -0.0000 electrons
 Dipole moment (field-independent basis, Debye):
    X=             -2.6191    Y=             -3.5257    Z=              2.0292  Tot=              4.8382
 Quadrupole moment (field-independent basis, Debye-Ang):
   XX=           -197.1572   YY=           -154.5094   ZZ=            -96.0564
   XY=             -7.5695   XZ=              0.1372   YZ=              2.5672
 Traceless Quadrupole moment (field-independent basis, Debye-Ang):
   XX=            -47.9162   YY=             -5.2684   ZZ=             53.1846
   XY=             -7.5695   XZ=              0.1372   YZ=              2.5672
 Octapole moment (field-independent basis, Debye-Ang**2):
  XXX=             42.4936  YYY=           -201.5505  ZZZ=            -61.8302  XYY=           -128.9750
  XXY=             94.9690  XXZ=             92.0187  XZZ=              1.0189  YZZ=             -3.6157
  YYZ=             -0.3350  XYZ=              1.9143
 Hexadecapole moment (field-independent basis, Debye-Ang**3):
 XXXX=          -7475.8641 YYYY=          -4531.0048 ZZZZ=          -2295.3906 XXXY=            240.6717
 XXXZ=            -99.6652 YYYX=           -409.7694 YYYZ=            160.2610 ZZZX=            -15.7356
 ZZZY=             -6.8577 XXYY=          -1736.1349 XXZZ=          -1356.4320 YYZZ=          -1195.8283
 XXYZ=            -81.4141 YYXZ=            105.2978 ZZXY=            -17.5453
 N-N= 1.646666132344D+03 E-N=-5.803534745814D+03  KE= 1.069611155045D+03
  Exact polarizability:   0.000   0.000   0.000   0.000   0.000   0.000
 Approx polarizability: 256.045  -3.047 195.180  -0.344  -1.357 222.797
 Rotating derivatives to standard orientation.
 ***** Axes restored to original set *****
 -------------------------------------------------------------------
 Center     Atomic                   Forces (Hartrees/Bohr)
 Number     Number              X              Y              Z
 -------------------------------------------------------------------
      1        6           0.017607754   -0.005013849    0.010392764
      2        6          -0.012034127    0.001227164   -0.000092784
      3        6           0.000336831   -0.000217875   -0.002262786
      4        6           0.004059950    0.000375087    0.002221722
      5        6          -0.001999587   -0.004163136    0.001368868
      6        6          -0.005758013    0.009281252   -0.010243866
      7        9           0.005638975   -0.000422983    0.003283928
      8        1           0.000084737    0.001058683    0.000144095
      9        1          -0.001580674   -0.000051891    0.000000055
     10        1           0.000007593    0.000508347   -0.000013040
     11        1          -0.000788456    0.000296892   -0.001365955
     12        1           0.000027544   -0.001814844   -0.000053155
     13        8          -0.000003954   -0.000210137   -0.000017745
     14        6           0.007338330    0.000100628    0.004440489
     15        1          -0.003676144   -0.002471304   -0.002194280
     16        1          -0.003683391    0.002479203   -0.002209690
     17        1          -0.002492255   -0.000340093    0.000424787
     18        7           0.002008338    0.015743662   -0.007316764
     19        6          -0.003104512   -0.003790249    0.006978112
     20        8           0.004456762   -0.000598101   -0.007697397
     21        6          -0.005050772   -0.009857349    0.012239414
     22        1           0.002555310   -0.000923880   -0.004004743
     23        1           0.000231657   -0.000703266   -0.000293711
     24        1           0.000304139   -0.000620458   -0.000198329
     25        1           0.000167475    0.000896845   -0.000705806
     26        1          -0.001577160   -0.002040027   -0.002930006
     27        7          -0.010796182   -0.001443697    0.014026303
     28        6           0.003953217   -0.004416861   -0.006139483
     29        8          -0.001877832    0.007880717    0.003432279
     30        6           0.009105708   -0.006766247   -0.012287016
     31        1          -0.000650105    0.004738306    0.001516790
     32        1           0.000274309    0.000762886   -0.000377399
     33        1           0.000383877    0.000694386   -0.000276054
     34        1          -0.000906108    0.000175161    0.000884912
     35        1          -0.002996456   -0.001959578    0.000137684
     36        7           0.006651676   -0.001348107   -0.016359665
     37        6          -0.003324775   -0.004492929    0.006467923
     38        8           0.002036155    0.007855280   -0.003311135
     39        6          -0.006048505   -0.006774632    0.014077633
     40        1           0.000962639    0.004739934   -0.001319584
     41        1          -0.000043521    0.000682513    0.000463631
     42        1          -0.000186450    0.000754938    0.000425333
     43        1           0.000386004    0.000189609   -0.001256329
 -------------------------------------------------------------------
 Cartesian Forces:  Max     0.017607754 RMS     0.005115545
 -----------------------------------------------------------------------------------------------
                       Internal Coordinate Forces (Hartree/Bohr or radian)
  Cent   Atom   N1       Length/X         N2         Alpha/Y        N3         Beta/Z          J
 -----------------------------------------------------------------------------------------------
      1  C 
      2  C        1   0.000000(     1)
      3  C        2   0.000005(     2)      1  -0.000798(    43)
      4  C        3   0.000002(     3)      2  -0.003869(    44)      1  -0.015030(    84)     0
      5  C        4  -0.000003(     4)      3  -0.010538(    45)      2  -0.008781(    85)     0
      6  C        1  -0.000010(     5)      2   0.031027(    46)      3  -0.014686(    86)     0
      7  F        1   0.000004(     6)      2   0.001435(    47)      3   0.002606(    87)     0
      8  H        2  -0.000001(     7)      1   0.000342(    48)      6  -0.001877(    88)     0
      9  H        3   0.000000(     8)      2  -0.003233(    49)      1   0.000092(    89)     0
     10  H        4   0.000000(     9)      3   0.000031(    50)      2  -0.000901(    90)     0
     11  H        5   0.000000(    10)      4   0.003226(    51)      3  -0.000526(    91)     0
     12  H        6  -0.000008(    11)      1   0.000240(    52)      2  -0.003215(    92)     0
     13  O        1   0.000012(    12)      2  -0.000191(    53)      3  -0.000471(    93)     0
     14  C       13   0.000000(    13)      1  -0.000040(    54)      2  -0.000018(    94)     0
     15  H       14   0.000000(    14)     13   0.010284(    55)      1   0.000095(    95)     0
     16  H       14   0.000000(    15)     13   0.010318(    56)      1  -0.000113(    96)     0
     17  H        7  -0.000001(    16)      1   0.002883(    57)      2   0.000135(    97)     0
     18  N       17  -0.000001(    17)      7   0.000023(    58)      1   0.000097(    98)     0
     19  C       18  -0.000002(    18)     17  -0.028554(    59)      7   0.000100(    99)     0
     20  O       19  -0.000000(    19)     18   0.020568(    60)     17  -0.000180(   100)     0
     21  C       18   0.000000(    20)     17  -0.031720(    61)     19  -0.000022(   101)     0
     22  H       21   0.000002(    21)     18  -0.009919(    62)     17  -0.000090(   102)     0
     23  H       21   0.000000(    22)     18  -0.001513(    63)     17   0.000601(   103)     0
     24  H       21   0.000000(    23)     18  -0.001354(    64)     17  -0.000568(   104)     0
     25  H       19  -0.000001(    24)     18   0.002395(    65)     17   0.000093(   105)     0
     26  H        7   0.000009(    25)      1   0.013214(    66)      2  -0.003027(   106)     0
     27  N       26   0.000003(    26)      7   0.000444(    67)      1   0.001470(   107)     0
     28  C       27  -0.000002(    27)     26  -0.028385(    68)      7   0.001470(   108)     0
     29  O       28  -0.000000(    28)     27   0.020285(    69)     26  -0.000013(   109)     0
     30  C       27   0.000002(    29)     26  -0.031953(    70)     28  -0.000005(   110)     0
     31  H       30   0.000001(    30)     27  -0.010284(    71)     26  -0.000055(   111)     0
     32  H       30   0.000000(    31)     27  -0.001711(    72)     26   0.000646(   112)     0
     33  H       30   0.000000(    32)     27  -0.001588(    73)     26  -0.000650(   113)     0
     34  H       28  -0.000001(    33)     27   0.002635(    74)     26   0.000325(   114)     0
     35  H        7   0.000023(    34)      1   0.011985(    75)      2   0.003197(   115)     0
     36  N       35   0.000001(    35)      7  -0.000139(    76)      1  -0.001222(   116)     0
     37  C       36   0.000012(    36)     35  -0.027939(    77)      7  -0.001221(   117)     0
     38  O       37   0.000000(    37)     36   0.020205(    78)     35  -0.000014(   118)     0
     39  C       36  -0.000001(    38)     35  -0.032027(    79)     37  -0.000005(   119)     0
     40  H       39  -0.000001(    39)     36  -0.010276(    80)     35   0.000005(   120)     0
     41  H       39   0.000000(    40)     36  -0.001564(    81)     35   0.000636(   121)     0
     42  H       39   0.000000(    41)     36  -0.001695(    82)     35  -0.000641(   122)     0
     43  H       37   0.000009(    42)     36   0.002750(    83)     35  -0.000213(   123)     0
 -----------------------------------------------------------------------------------------------
 Internal  Forces:  Max     0.032026867 RMS     0.008678366
 1\1\GINC-LOCALHOST\POpt\RM062X\6-311++G(d,p)\C13H22F1N3O4\LYWU\08-Jan-
 2025\1\\# opt=(z-matrix,recalc=5,loose) 6-311++g(d,p) m062x scrf=(solv
 ent=dichloroethane)\\test\\0,1\C\C,1,B1\C,2,B2,1,120.00000011\C,3,B3,2
 ,120.,1,0.,0\C,4,B4,3,119.99999989,2,0.,0\C,1,B5,2,119.97770821,3,1.71
 722694,0\F,1,B6,2,119.9999999,3,-180.,0\H,2,B7,1,120.00000011,6,-178.2
 8277306,0\H,3,B8,2,120.00000011,1,180.,0\H,4,B9,3,120.,2,180.,0\H,5,B1
 0,4,120.00000011,3,180.,0\H,6,B11,1,119.91553063,2,-177.77151684,0\O,1
 ,B12,2,119.9999999,3,-180.,0\C,13,B13,1,179.90000005,2,180.,0\H,14,B14
 ,13,119.99996989,1,-90.04490481,0\H,14,B15,13,119.99996989,1,90.044904
 81,0\H,7,B16,1,100.00000001,2,90.,0\N,17,B17,7,179.9,1,90.,0\C,18,B18,
 17,119.5,7,0.,0\O,19,B19,18,123.2,17,-180.,0\C,18,B20,17,121.9,19,-180
 .,0\H,21,B21,18,110.7,17,-180.,0\H,21,B22,18,110.7,17,-60.,0\H,21,B23,
 18,110.7,17,60.,0\H,19,B24,18,113.46721803,17,0.,0\H,7,B25,1,100.00000
 001,2,-30.,0\N,26,B26,7,179.9,1,-30.,0\C,27,B27,26,119.5,7,120.,0\O,28
 ,B28,27,123.2,26,-180.,0\C,27,B29,26,121.9,28,-180.,0\H,30,B30,27,110.
 7,26,180.,0\H,30,B31,27,110.7,26,-60.,0\H,30,B32,27,110.7,26,60.,0\H,2
 8,B33,27,113.46721803,26,0.,0\H,7,B34,1,100.00000001,2,-150.,0\N,35,B3
 5,7,179.9,1,-150.,0\C,36,B36,35,119.5,7,60.,0\O,37,B37,36,123.2,35,-18
 0.,0\C,36,B38,35,121.9,37,-180.,0\H,39,B39,36,110.7,35,180.,0\H,39,B40
 ,36,110.7,35,-60.,0\H,39,B41,36,110.7,35,60.,0\H,37,B42,36,113.4672180
 3,35,0.,0\\B1=1.38825432\B2=1.3902623\B3=1.38774691\B4=1.38785263\B5=1
 .3879647\B6=1.36317575\B7=1.0830979\B8=1.08248591\B9=1.0829859\B10=1.0
 8247446\B11=1.08314158\B12=4.23778284\B13=1.20451509\B14=1.10096348\B1
 5=1.10099127\B16=2.12258585\B17=1.00816279\B18=1.35113797\B19=1.220982
 09\B20=1.45311114\B21=1.08468113\B22=1.09212352\B23=1.09211304\B24=1.0
 995968\B25=2.29542472\B26=1.0082792\B27=1.3523353\B28=1.22004481\B29=1
 .45326686\B30=1.08469357\B31=1.09189698\B32=1.09197731\B33=1.10020934\
 B34=2.34809793\B35=1.00825042\B36=1.35249008\B37=1.21995005\B38=1.4532
 9944\B39=1.08466166\B40=1.0919565\B41=1.09189934\B42=1.09996964\\Versi
 on=ES64L-G16RevB.01\State=1-A\HF=-1073.4827263\RMSD=5.355e-09\RMSF=5.1
 16e-03\Dipole=0.3133848,-1.4964821,1.1338516\Polar=0.,0.,0.,0.,0.,0.\Q
 uadrupole=22.5954361,-5.8082707,-16.7871654,-2.3216202,30.8215959,9.53
 42753\PG=C01 [X(C13H22F1N3O4)]\\@


 SOME THINGS ARE EASY, THEY ARE ONLY HARD TO DO.
            -- A. EINSTEIN TO J. O. HIRSCHFELDER
 THE ONLY TROUBLE WITH A SURE THING IS THE UNCERTAINTY.
     -- FROM A TEABAG (BELONGING TO W.H.?)
 Job cpu time:       1 days  1 hours 53 minutes 27.2 seconds.
 Elapsed time:       0 days  3 hours 14 minutes 24.6 seconds.
 File lengths (MBytes):  RWF=   1737 Int=      0 D2E=      0 Chk=     52 Scr=      1
 Normal termination of Gaussian 16 at Wed Jan  8 13:11:46 2025.
