 Entering Gaussian System, Link 0=g16
 Input=model_H1.gjf
 Output=model_H1.log
 Initial command:
 /home/lywu/software/g16/l1.exe "/home/lywu/software/g16/scr/Gau-5944.inp" -scrdir="/home/lywu/software/g16/scr/"
 Entering Link 1 = /home/lywu/software/g16/l1.exe PID=      5961.
  
 Copyright (c) 1988-2017, Gaussian, Inc.  All Rights Reserved.
  
 This is part of the Gaussian(R) 16 program.  It is based on
 the Gaussian(R) 09 system (copyright 2009, Gaussian, Inc.),
 the Gaussian(R) 03 system (copyright 2003, Gaussian, Inc.),
 the Gaussian(R) 98 system (copyright 1998, Gaussian, Inc.),
 the Gaussian(R) 94 system (copyright 1995, Gaussian, Inc.),
 the Gaussian 92(TM) system (copyright 1992, Gaussian, Inc.),
 the Gaussian 90(TM) system (copyright 1990, Gaussian, Inc.),
 the Gaussian 88(TM) system (copyright 1988, Gaussian, Inc.),
 the Gaussian 86(TM) system (copyright 1986, Carnegie Mellon
 University), and the Gaussian 82(TM) system (copyright 1983,
 Carnegie Mellon University). Gaussian is a federally registered
 trademark of Gaussian, Inc.
  
 This software contains proprietary and confidential information,
 including trade secrets, belonging to Gaussian, Inc.
  
 This software is provided under written license and may be
 used, copied, transmitted, or stored only in accord with that
 written license.
  
 The following legend is applicable only to US Government
 contracts under FAR:
  
                    RESTRICTED RIGHTS LEGEND
  
 Use, reproduction and disclosure by the US Government is
 subject to restrictions as set forth in subparagraphs (a)
 and (c) of the Commercial Computer Software - Restricted
 Rights clause in FAR 52.227-19.
  
 Gaussian, Inc.
 340 Quinnipiac St., Bldg. 40, Wallingford CT 06492
  
  
 ---------------------------------------------------------------
 Warning -- This program may not be used in any manner that
 competes with the business of Gaussian, Inc. or will provide
 assistance to any competitor of Gaussian, Inc.  The licensee
 of this program is prohibited from giving any competitor of
 Gaussian, Inc. access to this program.  By using this program,
 the user acknowledges that Gaussian, Inc. is engaged in the
 business of creating and licensing software in the field of
 computational chemistry and represents and warrants to the
 licensee that it is not a competitor of Gaussian, Inc. and that
 it will not use this program in any manner prohibited above.
 ---------------------------------------------------------------
  

 Cite this work as:
 Gaussian 16, Revision B.01,
 M. J. Frisch, G. W. Trucks, H. B. Schlegel, G. E. Scuseria, 
 M. A. Robb, J. R. Cheeseman, G. Scalmani, V. Barone, 
 G. A. Petersson, H. Nakatsuji, X. Li, M. Caricato, A. V. Marenich, 
 J. Bloino, B. G. Janesko, R. Gomperts, B. Mennucci, H. P. Hratchian, 
 J. V. Ortiz, A. F. Izmaylov, J. L. Sonnenberg, D. Williams-Young, 
 F. Ding, F. Lipparini, F. Egidi, J. Goings, B. Peng, A. Petrone, 
 T. Henderson, D. Ranasinghe, V. G. Zakrzewski, J. Gao, N. Rega, 
 G. Zheng, W. Liang, M. Hada, M. Ehara, K. Toyota, R. Fukuda, 
 J. Hasegawa, M. Ishida, T. Nakajima, Y. Honda, O. Kitao, H. Nakai, 
 T. Vreven, K. Throssell, J. A. Montgomery, Jr., J. E. Peralta, 
 F. Ogliaro, M. J. Bearpark, J. J. Heyd, E. N. Brothers, K. N. Kudin, 
 V. N. Staroverov, T. A. Keith, R. Kobayashi, J. Normand, 
 K. Raghavachari, A. P. Rendell, J. C. Burant, S. S. Iyengar, 
 J. Tomasi, M. Cossi, J. M. Millam, M. Klene, C. Adamo, R. Cammi, 
 J. W. Ochterski, R. L. Martin, K. Morokuma, O. Farkas, 
 J. B. Foresman, and D. J. Fox, Gaussian, Inc., Wallingford CT, 2016.
 
 ******************************************
 Gaussian 16:  ES64L-G16RevB.01 20-Dec-2017
                 6-Jan-2025 
 ******************************************
 %mem=2GB
 %nprocshared=2
 Will use up to    2 processors via shared memory.
 ----------------------------------------------------------------
 # opt=z-matrix 6-311++g(d,p) m062x scrf=(solvent=dichloroethane)
 ----------------------------------------------------------------
 1/10=7,18=40,26=3,38=1/1,3;
 2/12=2,17=6,18=5,29=3,40=1/2;
 3/5=4,6=6,7=1111,11=2,25=1,30=1,70=2201,71=1,72=10,74=-55/1,2,3;
 4//1;
 5/5=2,38=5,53=10/2;
 6/7=2,8=2,9=2,10=2,28=1/1;
 7/29=1/1,2,3,16;
 1/10=7,18=40,26=3/3(2);
 2/29=3/2;
 99//99;
 2/29=3/2;
 3/5=4,6=6,7=1111,11=2,25=1,30=1,70=2205,71=1,72=10,74=-55/1,2,3;
 4/5=5,16=3,69=1/1;
 5/5=2,38=5,53=10/2;
 7//1,2,3,16;
 1/18=40,26=3/3(-5);
 2/29=3/2;
 6/7=2,8=2,9=2,10=2,19=2,28=1/1;
 99/9=1/99;
 ----
 test
 ----
 Symbolic Z-matrix:
 Charge =  0 Multiplicity = 1
 C
 C                    1    B1
 C                    2    B2       1     120. 
 C                    3    B3       2     120.     1     0.       0
 C                    4    B4       3     120.     2     0.       0
 C                    1    B5       2     119.97771  3     1.71723  0
 F                    1    B6       2     120.     3    -180.     0
 H                    2    B7       1     120.     6    -178.28277  0
 H                    3    B8       2     120.     1     180.     0
 H                    4    B9       3     120.     2     180.     0
 H                    5    B10      4     120.     3     180.     0
 H                    6    B11      1     119.91553  2    -177.77152  0
 O                    1    B12      2     120.     3    -180.     0
 C                    13   B13      1     179.9    2     180.     0
 H                    14   B14      13    119.99997  1    -90.0449  0
 H                    14   B15      13    119.99997  1     90.0449  0
 H                    7    B16      1     100.     2     90.      0
 N                    17   B17      7     179.9    1     90.      0
 C                    18   B18      17    119.5    7     0.       0
 O                    19   B19      18    123.2    17   -180.     0
 C                    18   B20      17    121.9    19   -180.     0
 H                    21   B21      18    110.7    17   -180.     0
 H                    21   B22      18    110.7    17   -60.      0
 H                    21   B23      18    110.7    17    60.      0
 H                    19   B24      18    113.46722  17    0.       0
       Variables:
  B1                    1.3                      
  B2                    1.3                      
  B3                    1.3                      
  B4                    1.3                      
  B5                    1.3                      
  B6                    1.4                      
  B7                    1.                       
  B8                    1.                       
  B9                    1.                       
  B10                   1.                       
  B11                   1.00101                  
  B12                   4.2                      
  B13                   1.2                      
  B14                   1.                       
  B15                   1.                       
  B16                   2.12                     
  B17                   1.                       
  B18                   1.33                     
  B19                   1.23                     
  B20                   1.45                     
  B21                   1.                       
  B22                   1.                       
  B23                   1.                       
  B24                   1.                       
 

 GradGradGradGradGradGradGradGradGradGradGradGradGradGradGradGradGradGrad
 Berny optimization.
 Initialization pass.
                       ----------------------------
                       !    Initial Parameters    !
                       ! (Angstroms and Degrees)  !
 ----------------------                            ----------------------
 !      Name          Value   Derivative information (Atomic Units)     !
 ------------------------------------------------------------------------
 !       B1          1.3      estimate D2E/DX2                          !
 !       B2          1.3      estimate D2E/DX2                          !
 !       B3          1.3      estimate D2E/DX2                          !
 !       B4          1.3      estimate D2E/DX2                          !
 !       B5          1.3      estimate D2E/DX2                          !
 !       B6          1.4      estimate D2E/DX2                          !
 !       B7          1.0      estimate D2E/DX2                          !
 !       B8          1.0      estimate D2E/DX2                          !
 !       B9          1.0      estimate D2E/DX2                          !
 !       B10         1.0      estimate D2E/DX2                          !
 !       B11         1.001    estimate D2E/DX2                          !
 !       B12         4.2      estimate D2E/DX2                          !
 !       B13         1.2      estimate D2E/DX2                          !
 !       B14         1.0      estimate D2E/DX2                          !
 !       B15         1.0      estimate D2E/DX2                          !
 !       B16         2.12     estimate D2E/DX2                          !
 !       B17         1.0      estimate D2E/DX2                          !
 !       B18         1.33     estimate D2E/DX2                          !
 !       B19         1.23     estimate D2E/DX2                          !
 !       B20         1.45     estimate D2E/DX2                          !
 !       B21         1.0      estimate D2E/DX2                          !
 !       B22         1.0      estimate D2E/DX2                          !
 !       B23         1.0      estimate D2E/DX2                          !
 !       B24         1.0      estimate D2E/DX2                          !
 ------------------------------------------------------------------------
 Trust Radius=3.00D-01 FncErr=1.00D-07 GrdErr=1.00D-06 EigMax=2.50D+02 EigMin=1.00D-04
 Number of steps in this run=     34 maximum allowed number of steps=    100.
 GradGradGradGradGradGradGradGradGradGradGradGradGradGradGradGradGradGrad

 ---------------------------------------------------------------------------------------------------
                            Z-MATRIX (ANGSTROMS AND DEGREES)
   CD    Cent   Atom    N1       Length/X        N2       Alpha/Y        N3        Beta/Z          J
 ---------------------------------------------------------------------------------------------------
      1      1  C 
      2      2  C        1   1.300000(     1)
      3      3  C        2   1.300000(     2)      1  120.000(    25)
      4      4  C        3   1.300000(     3)      2  120.000(    26)      1    0.000(    48)      0
      5      5  C        4   1.300000(     4)      3  120.000(    27)      2    0.000(    49)      0
      6      6  C        1   1.300000(     5)      2  119.978(    28)      3    1.717(    50)      0
      7      7  F        1   1.400000(     6)      2  120.000(    29)      3 -180.000(    51)      0
      8      8  H        2   1.000000(     7)      1  120.000(    30)      6 -178.283(    52)      0
      9      9  H        3   1.000000(     8)      2  120.000(    31)      1  180.000(    53)      0
     10     10  H        4   1.000000(     9)      3  120.000(    32)      2  180.000(    54)      0
     11     11  H        5   1.000000(    10)      4  120.000(    33)      3  180.000(    55)      0
     12     12  H        6   1.001007(    11)      1  119.916(    34)      2 -177.772(    56)      0
     13     13  O        1   4.200000(    12)      2  120.000(    35)      3 -180.000(    57)      0
     14     14  C       13   1.200000(    13)      1  179.900(    36)      2  180.000(    58)      0
     15     15  H       14   1.000000(    14)     13  120.000(    37)      1  -90.045(    59)      0
     16     16  H       14   1.000000(    15)     13  120.000(    38)      1   90.045(    60)      0
     17     17  H        7   2.120000(    16)      1  100.000(    39)      2   90.000(    61)      0
     18     18  N       17   1.000000(    17)      7  179.900(    40)      1   90.000(    62)      0
     19     19  C       18   1.330000(    18)     17  119.500(    41)      7    0.000(    63)      0
     20     20  O       19   1.230000(    19)     18  123.200(    42)     17 -180.000(    64)      0
     21     21  C       18   1.450000(    20)     17  121.900(    43)     19 -180.000(    65)      0
     22     22  H       21   1.000000(    21)     18  110.700(    44)     17 -180.000(    66)      0
     23     23  H       21   1.000000(    22)     18  110.700(    45)     17  -60.000(    67)      0
     24     24  H       21   1.000000(    23)     18  110.700(    46)     17   60.000(    68)      0
     25     25  H       19   1.000000(    24)     18  113.467(    47)     17    0.000(    69)      0
 ---------------------------------------------------------------------------------------------------
                         Z-Matrix orientation:                         
 ---------------------------------------------------------------------
 Center     Atomic      Atomic             Coordinates (Angstroms)
 Number     Number       Type             X           Y           Z
 ---------------------------------------------------------------------
      1          6           0        0.000000    0.000000    0.000000
      2          6           0        0.000000    0.000000    1.300000
      3          6           0        1.125833    0.000000    1.950000
      4          6           0        2.251666    0.000000    1.300000
      5          6           0        2.251666    0.000000    0.000000
      6          6           0        1.125580   -0.033745   -0.649562
      7          9           0       -1.212436    0.000000   -0.700000
      8          1           0       -0.866025    0.000000    1.800000
      9          1           0        1.125833    0.000000    2.950000
     10          1           0        3.117691    0.000000    1.800000
     11          1           0        3.117691    0.000000   -0.500000
     12          1           0        1.125833   -0.000000   -1.650000
     13          8           0       -3.637307    0.000000   -2.100000
     14          6           0       -4.675488    0.000000   -2.701813
     15          1           0       -5.108404    0.866025   -2.951981
     16          1           0       -5.108404   -0.866025   -2.951981
     17          1           0       -1.531249    2.087792   -0.884067
     18          7           0       -1.680760    3.072599   -0.972403
     19          6           0       -1.199589    3.715582   -2.032566
     20          8           0       -1.343395    4.924232   -2.209721
     21          6           0       -2.411147    3.829308    0.025809
     22          1           0       -2.460643    4.795025   -0.229027
     23          1           0       -3.344400    3.482475    0.119330
     24          1           0       -1.962551    3.763826    0.917141
     25          1           0       -0.710188    3.121088   -2.670583
 ---------------------------------------------------------------------
                    Distance matrix (angstroms):
                    1          2          3          4          5
     1  C    0.000000
     2  C    1.300000   0.000000
     3  C    2.251666   1.300000   0.000000
     4  C    2.600000   2.251666   1.300000   0.000000
     5  C    2.251666   2.600000   2.251666   1.300000   0.000000
     6  C    1.300000   2.251413   2.599781   2.251666   1.300438
     7  F    1.400000   2.338803   3.534119   4.000000   3.534119
     8  H    1.997498   1.000000   1.997498   3.157531   3.600000
     9  H    3.157531   1.997498   1.000000   1.997498   3.157531
    10  H    3.600000   3.157531   1.997498   1.000000   1.997498
    11  H    3.157531   3.600000   3.157531   1.997498   1.000000
    12  H    1.997498   3.157531   3.600000   3.157531   1.997498
    13  O    4.200000   4.978956   6.252200   6.800000   6.252200
    14  C    5.399999   6.154242   7.436040   7.999998   7.435406
    15  H    5.963219   6.702621   7.977790   8.544002   7.977144
    16  H    5.963219   6.702621   7.977790   8.544002   7.977144
    17  H    2.735905   3.387292   4.410317   4.841433   4.410317
    18  N    3.634747   4.174881   5.085102   5.483489   5.084329
    19  C    4.401805   5.133279   5.922328   6.068171   5.463335
    20  O    5.561982   6.194426   6.902784   7.034960   6.485013
    21  C    4.525251   4.701148   5.556648   6.166765   6.033746
    22  H    5.394393   5.602227   6.372066   6.894639   6.726854
    23  H    4.829791   4.970576   5.954995   6.696086   6.592255
    24  H    4.342712   4.261992   4.977078   5.663267   5.724261
    25  H    4.168641   5.100106   5.870430   5.854853   5.064167
                    6          7          8          9         10
     6  C    0.000000
     7  F    2.338803   0.000000
     8  H    3.157212   2.523886   0.000000
     9  H    3.599720   4.334743   2.300000   0.000000
    10  H    3.157531   5.000000   3.983717   2.300000   0.000000
    11  H    1.998003   4.334743   4.600000   3.983717   2.300000
    12  H    1.001007   2.523886   3.983717   4.600000   3.983717
    13  O    4.978956   2.800000   4.784349   6.941902   7.800000
    14  C    6.153476   3.999999   5.897315   8.099279   8.999998
    15  H    6.706212   4.582574   6.428771   8.628389   9.539390
    16  H    6.697491   4.582574   6.428771   8.628389   9.539390
    17  H    3.408028   2.120000   3.464912   5.110678   5.759839
    18  N    4.198707   3.119999   4.217923   5.718660   6.336577
    19  C    4.623479   3.947334   5.348399   6.636196   6.865349
    20  O    5.754257   5.152132   6.368187   7.547706   7.760620
    21  C    5.280885   4.077660   4.494303   5.977016   6.955531
    22  H    6.029500   4.977158   5.445367   6.779475   7.630663
    23  H    5.738965   4.164638   4.592888   6.334296   7.530665
    24  H    5.139325   4.164638   4.018482   5.276080   6.383940
    25  H    4.172235   3.725136   5.454502   6.686039   6.661829
                   11         12         13         14         15
    11  H    0.000000
    12  H    2.300000   0.000000
    13  O    6.941902   4.784349   0.000000
    14  C    8.098249   5.895900   1.200000   0.000000
    15  H    8.627332   6.427353   1.907878   1.000000   0.000000
    16  H    8.627332   6.427353   1.907878   1.000000   1.732051
    17  H    5.110678   3.464912   3.205129   4.189191   4.308714
    18  N    5.717444   4.216274   3.813189   4.626027   4.531715
    19  C    5.898577   4.399942   4.444386   5.131795   4.923833
    20  O    6.860940   5.537006   5.433427   5.965992   5.585274
    21  C    6.745971   5.475597   4.548201   5.218310   4.992341
    22  H    7.360944   6.154205   5.279900   5.832022   5.464628
    23  H    7.366806   5.936425   4.139910   4.675284   4.403461
    24  H    6.479471   5.504064   5.106304   5.884152   5.767473
    25  H    5.394931   3.762148   4.316802   5.046363   4.950636
                   16         17         18         19         20
    16  H    0.000000
    17  H    5.079109   0.000000
    18  N    5.583926   1.000000   0.000000
    19  C    6.092232   2.019591   1.330000   0.000000
    20  O    6.946461   3.136564   2.252403   1.230000   0.000000
    21  C    6.179691   2.152898   1.450000   2.391174   2.708605
    22  H    6.817082   2.936317   2.031644   2.451165   2.277737
    23  H    5.608397   2.497892   2.031644   3.047165   3.392221
    24  H    6.804559   2.497892   2.031644   3.047165   3.392221
    25  H    5.943111   2.221144   1.956573   1.000000   1.965877
                   21         22         23         24         25
    21  C    0.000000
    22  H    1.000000   0.000000
    23  H    1.000000   1.620237   0.000000
    24  H    1.000000   1.620237   1.620237   0.000000
    25  H    3.265787   3.439091   3.853996   3.853996   0.000000
 Stoichiometry    C9H12FNO2
 Framework group  C1[X(C9H12FNO2)]
 Deg. of freedom    69
 Full point group                 C1      NOp   1
 Largest Abelian subgroup         C1      NOp   1
 Largest concise Abelian subgroup C1      NOp   1
                         Standard orientation:                         
 ---------------------------------------------------------------------
 Center     Atomic      Atomic             Coordinates (Angstroms)
 Number     Number       Type             X           Y           Z
 ---------------------------------------------------------------------
      1          6           0       -1.478032    0.684443   -0.051588
      2          6           0       -2.104132    0.515941    1.075180
      3          6           0       -3.275438   -0.047817    1.089957
      4          6           0       -3.820644   -0.443073   -0.022033
      5          6           0       -3.194545   -0.274571   -1.148801
      6          6           0       -2.037845    0.319455   -1.166663
      7          9           0       -0.216625    1.291568   -0.067502
      8          1           0       -1.684742    0.819984    1.930557
      9          1           0       -3.757053   -0.177434    1.956702
     10          1           0       -4.721649   -0.876733   -0.010666
     11          1           0       -3.613934   -0.578614   -2.004178
     12          1           0       -1.541623    0.418805   -2.030323
     13          8           0        2.306188    2.505816   -0.099330
     14          6           0        3.387467    3.025997   -0.115053
     15          1           0        4.212376    2.467341   -0.028858
     16          1           0        3.463577    4.018274   -0.213001
     17          1           0        1.017658   -0.418262    0.150277
     18          7           0        1.599928   -1.224960    0.251268
     19          6           0        2.021682   -1.868229   -0.833734
     20          8           0        2.739153   -2.866281   -0.788708
     21          6           0        2.003111   -1.720845    1.552822
     22          1           0        2.581073   -2.531467    1.458734
     23          1           0        2.519573   -1.024918    2.051772
     24          1           0        1.203544   -1.968806    2.099822
     25          1           0        1.698865   -1.461645   -1.688414
 ---------------------------------------------------------------------
 Rotational constants (GHZ):           0.7642922           0.3965404           0.3045691
 Standard basis: 6-311++G(d,p) (5D, 7F)
 There are   383 symmetry adapted cartesian basis functions of A   symmetry.
 There are   370 symmetry adapted basis functions of A   symmetry.
   370 basis functions,   576 primitive gaussians,   383 cartesian basis functions
    49 alpha electrons       49 beta electrons
       nuclear repulsion energy       746.7549931467 Hartrees.
 NAtoms=   25 NActive=   25 NUniq=   25 SFac= 1.00D+00 NAtFMM=   60 NAOKFM=F Big=F
 Integral buffers will be    131072 words long.
 Raffenetti 2 integral format.
 Two-electron integral symmetry is turned on.
 ------------------------------------------------------------------------------
 Polarizable Continuum Model (PCM)
 =================================
 Model                : PCM.
 Atomic radii         : UFF (Universal Force Field).
 Polarization charges : Total charges.
 Charge compensation  : None.
 Solution method      : On-the-fly selection.
 Cavity type          : Scaled VdW (van der Waals Surface) (Alpha=1.100).
 Cavity algorithm     : GePol (No added spheres)
                        Default sphere list used, NSphG=   25.
                        Lebedev-Laikov grids with approx.  5.0 points / Ang**2.
                        Smoothing algorithm: York/Karplus (Gamma=1.0000).
                        Polarization charges: spherical gaussians, with
                                              point-specific exponents (IZeta= 3).
                        Self-potential: point-specific (ISelfS= 7).
                        Self-field    : sphere-specific E.n sum rule (ISelfD= 2).
 1st derivatives      : Analytical E(r).r(x)/FMM algorithm (CHGder, D1EAlg=3).
                        Cavity 1st derivative terms included.
 Solvent              : DiChloroEthane, Eps=  10.125000 Eps(inf)=   2.087447
 ------------------------------------------------------------------------------
 One-electron integrals computed using PRISM.
 NBasis=   370 RedAO= T EigKep=  3.60D-06  NBF=   370
 NBsUse=   369 1.00D-06 EigRej=  5.51D-07 NBFU=   369
 ExpMin= 3.60D-02 ExpMax= 1.14D+04 ExpMxC= 1.72D+03 IAcc=3 IRadAn=         5 AccDes= 0.00D+00
 Harris functional with IExCor= 1009 and IRadAn=       5 diagonalized for initial guess.
 HarFok:  IExCor= 1009 AccDes= 0.00D+00 IRadAn=         5 IDoV= 1 UseB2=F ITyADJ=14
 ICtDFT=  3500011 ScaDFX=  1.000000  1.000000  1.000000  1.000000
 FoFCou: FMM=F IPFlag=           0 FMFlag=      100000 FMFlg1=           0
         NFxFlg=           0 DoJE=T BraDBF=F KetDBF=T FulRan=T
         wScrn=  0.000000 ICntrl=       500 IOpCl=  0 I1Cent=   200000004 NGrid=           0
         NMat0=    1 NMatS0=      1 NMatT0=    0 NMatD0=    1 NMtDS0=    0 NMtDT0=    0
 Petite list used in FoFCou.
 Requested convergence on RMS density matrix=1.00D-08 within 128 cycles.
 Requested convergence on MAX density matrix=1.00D-06.
 Requested convergence on             energy=1.00D-06.
 No special actions if energy rises.
 Inv3:  Mode=1 IEnd=    16188987.
 Iteration    1 A*A^-1 deviation from unit magnitude is 7.11D-15 for   2322.
 Iteration    1 A*A^-1 deviation from orthogonality  is 2.61D-15 for   2312    857.
 Iteration    1 A^-1*A deviation from unit magnitude is 7.22D-15 for   2322.
 Iteration    1 A^-1*A deviation from orthogonality  is 4.08D-15 for   2302   1586.
 Error on total polarization charges =  0.01181
 SCF Done:  E(RM062X) =  -654.996520090     A.U. after   14 cycles
            NFock= 14  Conv=0.35D-08     -V/T= 1.9986

 **********************************************************************

            Population analysis using the SCF Density.

 **********************************************************************

 Orbital symmetries:
       Occupied  (A) (A) (A) (A) (A) (A) (A) (A) (A) (A) (A) (A)
                 (A) (A) (A) (A) (A) (A) (A) (A) (A) (A) (A) (A)
                 (A) (A) (A) (A) (A) (A) (A) (A) (A) (A) (A) (A)
                 (A) (A) (A) (A) (A) (A) (A) (A) (A) (A) (A) (A)
                 (A)
       Virtual   (A) (A) (A) (A) (A) (A) (A) (A) (A) (A) (A) (A)
                 (A) (A) (A) (A) (A) (A) (A) (A) (A) (A) (A) (A)
                 (A) (A) (A) (A) (A) (A) (A) (A) (A) (A) (A) (A)
                 (A) (A) (A) (A) (A) (A) (A) (A) (A) (A) (A) (A)
                 (A) (A) (A) (A) (A) (A) (A) (A) (A) (A) (A) (A)
                 (A) (A) (A) (A) (A) (A) (A) (A) (A) (A) (A) (A)
                 (A) (A) (A) (A) (A) (A) (A) (A) (A) (A) (A) (A)
                 (A) (A) (A) (A) (A) (A) (A) (A) (A) (A) (A) (A)
                 (A) (A) (A) (A) (A) (A) (A) (A) (A) (A) (A) (A)
                 (A) (A) (A) (A) (A) (A) (A) (A) (A) (A) (A) (A)
                 (A) (A) (A) (A) (A) (A) (A) (A) (A) (A) (A) (A)
                 (A) (A) (A) (A) (A) (A) (A) (A) (A) (A) (A) (A)
                 (A) (A) (A) (A) (A) (A) (A) (A) (A) (A) (A) (A)
                 (A) (A) (A) (A) (A) (A) (A) (A) (A) (A) (A) (A)
                 (A) (A) (A) (A) (A) (A) (A) (A) (A) (A) (A) (A)
                 (A) (A) (A) (A) (A) (A) (A) (A) (A) (A) (A) (A)
                 (A) (A) (A) (A) (A) (A) (A) (A) (A) (A) (A) (A)
                 (A) (A) (A) (A) (A) (A) (A) (A) (A) (A) (A) (A)
                 (A) (A) (A) (A) (A) (A) (A) (A) (A) (A) (A) (A)
                 (A) (A) (A) (A) (A) (A) (A) (A) (A) (A) (A) (A)
                 (A) (A) (A) (A) (A) (A) (A) (A) (A) (A) (A) (A)
                 (A) (A) (A) (A) (A) (A) (A) (A) (A) (A) (A) (A)
                 (A) (A) (A) (A) (A) (A) (A) (A) (A) (A) (A) (A)
                 (A) (A) (A) (A) (A) (A) (A) (A) (A) (A) (A) (A)
                 (A) (A) (A) (A) (A) (A) (A) (A) (A) (A) (A) (A)
                 (A) (A) (A) (A) (A) (A) (A) (A) (A) (A) (A) (A)
                 (A) (A) (A) (A) (A) (A) (A) (A)
 The electronic state is 1-A.
 Alpha  occ. eigenvalues --  -25.25338 -19.63855 -19.59083 -14.77312 -10.63061
 Alpha  occ. eigenvalues --  -10.61565 -10.61401 -10.53536 -10.52526 -10.52519
 Alpha  occ. eigenvalues --  -10.52267 -10.52255 -10.51522  -1.35875  -1.19059
 Alpha  occ. eigenvalues --   -1.16124  -1.03751  -1.03260  -0.89436  -0.88533
 Alpha  occ. eigenvalues --   -0.83268  -0.74966  -0.73883  -0.72431  -0.69399
 Alpha  occ. eigenvalues --   -0.66478  -0.64746  -0.60470  -0.59159  -0.58784
 Alpha  occ. eigenvalues --   -0.56952  -0.54386  -0.54069  -0.53941  -0.53488
 Alpha  occ. eigenvalues --   -0.52624  -0.50076  -0.49470  -0.47980  -0.47466
 Alpha  occ. eigenvalues --   -0.47144  -0.46165  -0.44546  -0.42149  -0.35027
 Alpha  occ. eigenvalues --   -0.34279  -0.33993  -0.33036  -0.32303
 Alpha virt. eigenvalues --   -0.00521  -0.00400   0.00656   0.00911   0.01578
 Alpha virt. eigenvalues --    0.02193   0.02319   0.02847   0.03020   0.03374
 Alpha virt. eigenvalues --    0.04133   0.04310   0.04513   0.05266   0.05397
 Alpha virt. eigenvalues --    0.06571   0.07023   0.07565   0.07738   0.08791
 Alpha virt. eigenvalues --    0.09207   0.09581   0.09796   0.11373   0.11508
 Alpha virt. eigenvalues --    0.11640   0.11939   0.12633   0.13125   0.13428
 Alpha virt. eigenvalues --    0.13955   0.14082   0.14113   0.14427   0.15015
 Alpha virt. eigenvalues --    0.15253   0.15427   0.15828   0.16168   0.16739
 Alpha virt. eigenvalues --    0.17346   0.17782   0.18573   0.18793   0.19138
 Alpha virt. eigenvalues --    0.19522   0.20281   0.21025   0.21183   0.21883
 Alpha virt. eigenvalues --    0.22303   0.22857   0.23505   0.23896   0.25471
 Alpha virt. eigenvalues --    0.25734   0.26291   0.26865   0.27140   0.27209
 Alpha virt. eigenvalues --    0.28201   0.29131   0.30373   0.30683   0.31512
 Alpha virt. eigenvalues --    0.31947   0.32605   0.32878   0.33499   0.34320
 Alpha virt. eigenvalues --    0.34661   0.35887   0.36197   0.36389   0.37280
 Alpha virt. eigenvalues --    0.37736   0.39056   0.40013   0.40564   0.41387
 Alpha virt. eigenvalues --    0.42852   0.43567   0.44193   0.45135   0.45874
 Alpha virt. eigenvalues --    0.47837   0.49390   0.50799   0.52158   0.53665
 Alpha virt. eigenvalues --    0.54609   0.55489   0.56366   0.57453   0.58572
 Alpha virt. eigenvalues --    0.59407   0.60300   0.60844   0.61367   0.61825
 Alpha virt. eigenvalues --    0.62098   0.62596   0.64002   0.65245   0.65543
 Alpha virt. eigenvalues --    0.66200   0.67850   0.68808   0.70429   0.71002
 Alpha virt. eigenvalues --    0.72114   0.73340   0.74275   0.75505   0.76088
 Alpha virt. eigenvalues --    0.76555   0.76856   0.79570   0.80376   0.81479
 Alpha virt. eigenvalues --    0.81591   0.83493   0.85428   0.86331   0.86924
 Alpha virt. eigenvalues --    0.89351   0.89903   0.91341   0.92727   0.94030
 Alpha virt. eigenvalues --    0.94931   0.98374   1.00047   1.00666   1.01639
 Alpha virt. eigenvalues --    1.02043   1.03246   1.05434   1.07228   1.08614
 Alpha virt. eigenvalues --    1.08903   1.09962   1.10664   1.11508   1.12840
 Alpha virt. eigenvalues --    1.16516   1.16633   1.17277   1.19101   1.20424
 Alpha virt. eigenvalues --    1.21401   1.22712   1.24055   1.24966   1.27541
 Alpha virt. eigenvalues --    1.29308   1.30660   1.35305   1.36308   1.36699
 Alpha virt. eigenvalues --    1.38015   1.43023   1.51936   1.52685   1.53631
 Alpha virt. eigenvalues --    1.54218   1.55798   1.57910   1.58773   1.61859
 Alpha virt. eigenvalues --    1.62182   1.62629   1.63585   1.64233   1.65309
 Alpha virt. eigenvalues --    1.66258   1.68061   1.68340   1.70159   1.70570
 Alpha virt. eigenvalues --    1.72341   1.73695   1.74581   1.76022   1.76549
 Alpha virt. eigenvalues --    1.77047   1.80235   1.82066   1.82908   1.85058
 Alpha virt. eigenvalues --    1.85387   1.85712   1.86148   1.86649   1.90879
 Alpha virt. eigenvalues --    1.92702   1.94480   1.97347   1.98193   1.99275
 Alpha virt. eigenvalues --    2.03661   2.03764   2.04767   2.05599   2.06731
 Alpha virt. eigenvalues --    2.08352   2.12449   2.14039   2.15347   2.15820
 Alpha virt. eigenvalues --    2.17568   2.17727   2.20365   2.21730   2.24009
 Alpha virt. eigenvalues --    2.26904   2.37236   2.40128   2.40810   2.41845
 Alpha virt. eigenvalues --    2.46583   2.48753   2.50693   2.51414   2.53900
 Alpha virt. eigenvalues --    2.56684   2.58390   2.58448   2.62145   2.63910
 Alpha virt. eigenvalues --    2.64468   2.67373   2.69433   2.70763   2.71122
 Alpha virt. eigenvalues --    2.72515   2.75434   2.76921   2.77347   2.78131
 Alpha virt. eigenvalues --    2.79056   2.79622   2.81547   2.84713   2.86487
 Alpha virt. eigenvalues --    2.86592   2.87968   2.89754   2.89972   2.90526
 Alpha virt. eigenvalues --    2.94055   2.94765   2.96674   2.98758   2.99571
 Alpha virt. eigenvalues --    3.00935   3.02677   3.04148   3.06747   3.08511
 Alpha virt. eigenvalues --    3.11774   3.24170   3.27084   3.28035   3.35155
 Alpha virt. eigenvalues --    3.39832   3.41907   3.42175   3.44396   3.55536
 Alpha virt. eigenvalues --    3.60135   3.61690   3.63832   3.64754   3.70830
 Alpha virt. eigenvalues --    3.75309   3.76396   3.87111   3.87887   3.89059
 Alpha virt. eigenvalues --    3.96199   3.99822   4.00681   4.04764   4.04969
 Alpha virt. eigenvalues --    4.08984   4.10923   4.11433   4.13123   4.17980
 Alpha virt. eigenvalues --    4.19232   4.26230   4.26420   4.36338   4.94875
 Alpha virt. eigenvalues --    4.95050   4.99507   5.06565   5.11594   5.17650
 Alpha virt. eigenvalues --    5.24682   5.33159   5.83088   5.86673   6.57869
 Alpha virt. eigenvalues --    6.62317   6.88848  23.73851  24.09072  24.17732
 Alpha virt. eigenvalues --   24.26836  24.27945  24.31690  24.54255  24.57271
 Alpha virt. eigenvalues --   24.72636  35.71641  50.07239  50.11582  66.97159
          Condensed to atoms (all electrons):
               1          2          3          4          5          6
     1  C   11.543526  -1.089555  -1.430673  -0.438135  -1.268845  -1.101178
     2  C   -1.089555  13.803800   0.887040  -0.700441   0.161281  -7.395163
     3  C   -1.430673   0.887040   6.091482   0.627700  -0.369880   0.048124
     4  C   -0.438135  -0.700441   0.627700   6.496607   0.555529  -0.564702
     5  C   -1.268845   0.161281  -0.369880   0.555529   6.057263   0.737808
     6  C   -1.101178  -7.395163   0.048124  -0.564702   0.737808  13.891130
     7  F    0.602462  -0.297867  -0.055275   0.029780  -0.068461  -0.291372
     8  H   -0.212578   0.686847  -0.014246  -0.007532   0.020355  -0.138676
     9  H    0.051915  -0.067762   0.404979  -0.112594  -0.023488   0.081423
    10  H    0.021924  -0.021910  -0.058939   0.492088  -0.061114  -0.015697
    11  H    0.058568   0.087878  -0.022140  -0.113732   0.414161  -0.087597
    12  H   -0.257156  -0.168481   0.025631   0.004813  -0.015904   0.728315
    13  O    0.042797  -0.021835  -0.001879  -0.000692  -0.001641  -0.012615
    14  C    0.001658  -0.000876  -0.000044   0.000590  -0.000286  -0.002113
    15  H    0.001949  -0.000793  -0.000260   0.000021  -0.000212  -0.000394
    16  H   -0.002075   0.000785   0.000153  -0.000024   0.000283   0.000473
    17  H   -0.051832  -0.002135  -0.012552  -0.006007   0.018063   0.007919
    18  N   -0.018319  -0.011571   0.017258   0.003705   0.000764   0.018014
    19  C    0.032538  -0.028598   0.001461   0.005235  -0.005089   0.015171
    20  O    0.001080  -0.000134  -0.000542   0.000060   0.001086  -0.001124
    21  C   -0.002511   0.041074   0.000137   0.001315  -0.002232  -0.037419
    22  H    0.003226   0.002987   0.000866   0.000016  -0.001084  -0.003211
    23  H    0.006343  -0.004898  -0.001310  -0.000280  -0.000713   0.002696
    24  H    0.001101   0.003536  -0.001673   0.002058   0.001277  -0.003151
    25  H    0.039666   0.006635  -0.000611  -0.000673  -0.011027  -0.016803
               7          8          9         10         11         12
     1  C    0.602462  -0.212578   0.051915   0.021924   0.058568  -0.257156
     2  C   -0.297867   0.686847  -0.067762  -0.021910   0.087878  -0.168481
     3  C   -0.055275  -0.014246   0.404979  -0.058939  -0.022140   0.025631
     4  C    0.029780  -0.007532  -0.112594   0.492088  -0.113732   0.004813
     5  C   -0.068461   0.020355  -0.023488  -0.061114   0.414161  -0.015904
     6  C   -0.291372  -0.138676   0.081423  -0.015697  -0.087597   0.728315
     7  F    9.253828  -0.033952  -0.000856   0.001015  -0.001081  -0.028587
     8  H   -0.033952   0.493886  -0.012225   0.000624   0.002341   0.000996
     9  H   -0.000856  -0.012225   0.475936  -0.012765   0.000447   0.002589
    10  H    0.001015   0.000624  -0.012765   0.482299  -0.013449   0.001193
    11  H   -0.001081   0.002341   0.000447  -0.013449   0.480470  -0.019529
    12  H   -0.028587   0.000996   0.002589   0.001193  -0.019529   0.520974
    13  O    0.004328  -0.000424   0.000074  -0.000010   0.000063  -0.000036
    14  C    0.001214  -0.000004  -0.000035   0.000015  -0.000024  -0.000272
    15  H   -0.000684  -0.000152   0.000002   0.000000   0.000002  -0.000175
    16  H   -0.000509   0.000158  -0.000003  -0.000000  -0.000000   0.000104
    17  H    0.110937  -0.007716   0.001873  -0.001942   0.001126   0.002144
    18  N   -0.027438  -0.000975  -0.000061   0.000117  -0.000130   0.001538
    19  C   -0.014536   0.001327  -0.000184   0.000356  -0.000810  -0.000002
    20  O    0.000053   0.000171  -0.000021   0.000002  -0.000010  -0.000031
    21  C   -0.007252   0.003440  -0.000588   0.000191  -0.000042  -0.000205
    22  H   -0.001090   0.000405  -0.000003   0.000018   0.000029  -0.000293
    23  H   -0.001282  -0.000529   0.000133   0.000006  -0.000021   0.000146
    24  H    0.000975  -0.001203  -0.000584   0.000023   0.000034  -0.000513
    25  H   -0.004138   0.000932  -0.000054  -0.000015   0.000283  -0.006533
              13         14         15         16         17         18
     1  C    0.042797   0.001658   0.001949  -0.002075  -0.051832  -0.018319
     2  C   -0.021835  -0.000876  -0.000793   0.000785  -0.002135  -0.011571
     3  C   -0.001879  -0.000044  -0.000260   0.000153  -0.012552   0.017258
     4  C   -0.000692   0.000590   0.000021  -0.000024  -0.006007   0.003705
     5  C   -0.001641  -0.000286  -0.000212   0.000283   0.018063   0.000764
     6  C   -0.012615  -0.002113  -0.000394   0.000473   0.007919   0.018014
     7  F    0.004328   0.001214  -0.000684  -0.000509   0.110937  -0.027438
     8  H   -0.000424  -0.000004  -0.000152   0.000158  -0.007716  -0.000975
     9  H    0.000074  -0.000035   0.000002  -0.000003   0.001873  -0.000061
    10  H   -0.000010   0.000015   0.000000  -0.000000  -0.001942   0.000117
    11  H    0.000063  -0.000024   0.000002  -0.000000   0.001126  -0.000130
    12  H   -0.000036  -0.000272  -0.000175   0.000104   0.002144   0.001538
    13  O    8.191719   0.265249  -0.083992  -0.095034   0.049788  -0.006176
    14  C    0.265249   4.810842   0.409470   0.419183  -0.013797   0.002192
    15  H   -0.083992   0.409470   0.678574  -0.129458   0.002697  -0.000505
    16  H   -0.095034   0.419183  -0.129458   0.683046  -0.000962   0.000822
    17  H    0.049788  -0.013797   0.002697  -0.000962   0.660304   0.345339
    18  N   -0.006176   0.002192  -0.000505   0.000822   0.345339   7.132602
    19  C   -0.007752   0.001566   0.000514  -0.000432  -0.146993   0.161398
    20  O    0.000126  -0.000146   0.000016  -0.000023   0.002932  -0.180814
    21  C   -0.004989   0.001929  -0.000866   0.000345  -0.078534   0.165675
    22  H   -0.000097   0.000532  -0.000345   0.000040  -0.031723  -0.099121
    23  H   -0.000379   0.000527  -0.000132  -0.000061  -0.006764  -0.043207
    24  H   -0.000213  -0.000491   0.000352  -0.000132   0.020219  -0.047649
    25  H   -0.001179   0.000375   0.000199  -0.000109  -0.040007  -0.236282
              19         20         21         22         23         24
     1  C    0.032538   0.001080  -0.002511   0.003226   0.006343   0.001101
     2  C   -0.028598  -0.000134   0.041074   0.002987  -0.004898   0.003536
     3  C    0.001461  -0.000542   0.000137   0.000866  -0.001310  -0.001673
     4  C    0.005235   0.000060   0.001315   0.000016  -0.000280   0.002058
     5  C   -0.005089   0.001086  -0.002232  -0.001084  -0.000713   0.001277
     6  C    0.015171  -0.001124  -0.037419  -0.003211   0.002696  -0.003151
     7  F   -0.014536   0.000053  -0.007252  -0.001090  -0.001282   0.000975
     8  H    0.001327   0.000171   0.003440   0.000405  -0.000529  -0.001203
     9  H   -0.000184  -0.000021  -0.000588  -0.000003   0.000133  -0.000584
    10  H    0.000356   0.000002   0.000191   0.000018   0.000006   0.000023
    11  H   -0.000810  -0.000010  -0.000042   0.000029  -0.000021   0.000034
    12  H   -0.000002  -0.000031  -0.000205  -0.000293   0.000146  -0.000513
    13  O   -0.007752   0.000126  -0.004989  -0.000097  -0.000379  -0.000213
    14  C    0.001566  -0.000146   0.001929   0.000532   0.000527  -0.000491
    15  H    0.000514   0.000016  -0.000866  -0.000345  -0.000132   0.000352
    16  H   -0.000432  -0.000023   0.000345   0.000040  -0.000061  -0.000132
    17  H   -0.146993   0.002932  -0.078534  -0.031723  -0.006764   0.020219
    18  N    0.161398  -0.180814   0.165675  -0.099121  -0.043207  -0.047649
    19  C    4.945270   0.466189  -0.039411   0.034415  -0.006026  -0.008636
    20  O    0.466189   8.255182  -0.028647   0.037189  -0.003058  -0.004923
    21  C   -0.039411  -0.028647   5.080317   0.438318   0.428690   0.408519
    22  H    0.034415   0.037189   0.438318   0.481772  -0.026052  -0.026055
    23  H   -0.006026  -0.003058   0.428690  -0.026052   0.547146  -0.062424
    24  H   -0.008636  -0.004923   0.408519  -0.026055  -0.062424   0.556850
    25  H    0.457239  -0.034631   0.002888   0.015586  -0.002520  -0.003285
              25
     1  C    0.039666
     2  C    0.006635
     3  C   -0.000611
     4  C   -0.000673
     5  C   -0.011027
     6  C   -0.016803
     7  F   -0.004138
     8  H    0.000932
     9  H   -0.000054
    10  H   -0.000015
    11  H    0.000283
    12  H   -0.006533
    13  O   -0.001179
    14  C    0.000375
    15  H    0.000199
    16  H   -0.000109
    17  H   -0.040007
    18  N   -0.236282
    19  C    0.457239
    20  O   -0.034631
    21  C    0.002888
    22  H    0.015586
    23  H   -0.002520
    24  H   -0.003285
    25  H    0.694723
 Mulliken charges:
               1
     1  C   -0.535897
     2  C    0.130156
     3  C   -0.134807
     4  C   -0.274705
     5  C   -0.137892
     6  C    0.140141
     7  F   -0.170210
     8  H    0.218729
     9  H    0.211854
    10  H    0.185971
    11  H    0.213163
    12  H    0.209275
    13  O   -0.315200
    14  C    0.102745
    15  H    0.124174
    16  H    0.123431
    17  H    0.177621
    18  N   -0.177177
    19  C    0.135788
    20  O   -0.509983
    21  C   -0.370143
    22  H    0.173674
    23  H    0.173965
    24  H    0.165987
    25  H    0.139341
 Sum of Mulliken charges =  -0.00000
 Mulliken charges with hydrogens summed into heavy atoms:
               1
     1  C   -0.535897
     2  C    0.348885
     3  C    0.077046
     4  C   -0.088734
     5  C    0.075270
     6  C    0.349416
     7  F   -0.170210
    13  O   -0.315200
    14  C    0.350350
    18  N    0.000444
    19  C    0.275129
    20  O   -0.509983
    21  C    0.143483
 Electronic spatial extent (au):  <R**2>=           3670.0144
 Charge=             -0.0000 electrons
 Dipole moment (field-independent basis, Debye):
    X=             -2.6467    Y=              4.4586    Z=              1.7695  Tot=              5.4786
 Quadrupole moment (field-independent basis, Debye-Ang):
   XX=            -63.4672   YY=            -87.2885   ZZ=            -66.9830
   XY=             27.3710   XZ=              5.0211   YZ=             -5.3350
 Traceless Quadrupole moment (field-independent basis, Debye-Ang):
   XX=              9.1124   YY=            -14.7089   ZZ=              5.5965
   XY=             27.3710   XZ=              5.0211   YZ=             -5.3350
 Octapole moment (field-independent basis, Debye-Ang**2):
  XXX=             12.6698  YYY=             99.3783  ZZZ=              1.4966  XYY=              3.8561
  XXY=             89.4387  XXZ=             17.3734  XZZ=             -2.4650  YZZ=              3.6205
  YYZ=             18.5489  XYZ=            -21.9783
 Hexadecapole moment (field-independent basis, Debye-Ang**3):
 XXXX=          -2691.1081 YYYY=          -1371.5536 ZZZZ=           -423.7535 XXXY=            441.3829
 XXXZ=             35.7344 YYYX=            337.5788 YYYZ=            -67.6663 ZZZX=              5.8672
 ZZZY=             -4.9041 XXYY=           -702.4698 XXZZ=           -532.1475 YYZZ=           -302.4576
 XXYZ=            -53.6631 YYXZ=             50.8694 ZZXY=             13.9920
 N-N= 7.467549931467D+02 E-N=-3.030019048383D+03  KE= 6.559082746861D+02
 D1PCM: PCM CHGder 1st derivatives, ID1Alg=3 FixD1E=F DoIter=F DoCFld=F I1PDM=0.
 Calling FoFJK, ICntrl=      2127 FMM=F ISym2X=0 I1Cent= 0 IOpClX= 0 NMat=1 NMatS=1 NMatT=0.
 ***** Axes restored to original set *****
 -------------------------------------------------------------------
 Center     Atomic                   Forces (Hartrees/Bohr)
 Number     Number              X              Y              Z
 -------------------------------------------------------------------
      1        6          -0.088107903   -0.004110493   -0.050843892
      2        6          -0.053629939    0.001145804    0.015117573
      3        6           0.002655750    0.000029842    0.037445329
      4        6           0.039413821    0.000588201    0.022739785
      5        6           0.033300154   -0.002442846   -0.016554076
      6        6          -0.013267807    0.003577816   -0.054926455
      7        9           0.023955388    0.001927489    0.013817708
      8        1          -0.065606063    0.000296182    0.035997283
      9        1          -0.001674928   -0.000159733    0.073810899
     10        1           0.064283992    0.000590395    0.037118056
     11        1           0.063070343    0.000409659   -0.038365374
     12        1          -0.001636186   -0.000948497   -0.073864173
     13        8           0.015288075    0.000207798    0.008894694
     14        6           0.061171855    0.000098716    0.035537618
     15        1          -0.039206995    0.071517476   -0.022745340
     16        1          -0.039186342   -0.071513248   -0.022734633
     17        1          -0.001544872   -0.009875543    0.001537147
     18        7          -0.003320663    0.013893838    0.003152554
     19        6          -0.036804895    0.052712018    0.045358921
     20        8           0.004558369   -0.002440623   -0.007177415
     21        6           0.031045631   -0.043761685   -0.038468904
     22        1          -0.000245045    0.070555399   -0.024425765
     23        1          -0.072927674   -0.029112922    0.005709703
     24        1           0.036959597   -0.006666497    0.069236357
     25        1           0.041456335   -0.046518546   -0.055367598
 -------------------------------------------------------------------
 Cartesian Forces:  Max     0.088107903 RMS     0.037471482
 -----------------------------------------------------------------------------------------------
                       Internal Coordinate Forces (Hartree/Bohr or radian)
  Cent   Atom   N1       Length/X         N2         Alpha/Y        N3         Beta/Z          J
 -----------------------------------------------------------------------------------------------
      1  C 
      2  C        1   0.167309(     1)
      3  C        2   0.232211(     2)      1   0.493233(    25)
      4  C        3   0.170795(     3)      2   0.489815(    26)      1  -0.005473(    48)     0
      5  C        4   0.054919(     4)      3   0.233554(    27)      2  -0.004326(    49)     0
      6  C        1   0.051379(     5)      2   0.295381(    28)      3  -0.004261(    50)     0
      7  F        1  -0.026719(     6)      2   0.000239(    29)      3  -0.000688(    51)     0
      8  H        2   0.074815(     7)      1  -0.003077(    30)      6  -0.000485(    52)     0
      9  H        3   0.073811(     8)      2  -0.003165(    31)      1   0.000261(    53)     0
     10  H        4   0.074231(     9)      3  -0.000006(    32)      2  -0.000966(    54)     0
     11  H        5   0.073803(    10)      4   0.003194(    33)      3  -0.000670(    55)     0
     12  H        6   0.073790(    11)      1  -0.002805(    34)      2  -0.005764(    56)     0
     13  O        1   0.002198(    12)      2  -0.000405(    35)      3   0.002308(    57)     0
     14  C       13   0.019885(    13)      1  -0.000067(    36)      2  -0.000002(    58)     0
     15  H       14   0.084599(    14)     13   0.006606(    37)      1   0.000117(    59)     0
     16  H       14   0.084584(    15)     13   0.006572(    38)      1  -0.000119(    60)     0
     17  H        7  -0.001034(    16)      1   0.002626(    39)      2  -0.000095(    61)     0
     18  N       17   0.008597(    17)      7  -0.000060(    40)      1  -0.000291(    62)     0
     19  C       18   0.018846(    18)     17  -0.028623(    41)      7  -0.000288(    63)     0
     20  O       19  -0.001897(    19)     18   0.020082(    42)     17  -0.000137(    64)     0
     21  C       18   0.006210(    20)     17  -0.032461(    43)     19  -0.000179(    65)     0
     22  H       21   0.074373(    21)     18  -0.012444(    44)     17  -0.000027(    66)     0
     23  H       21   0.078691(    22)     18  -0.004733(    45)     17   0.000263(    67)     0
     24  H       21   0.078729(    23)     18  -0.004568(    46)     17  -0.000224(    68)     0
     25  H       19   0.083269(    24)     18   0.007177(    47)     17  -0.000027(    69)     0
 -----------------------------------------------------------------------------------------------
 Internal  Forces:  Max     0.493232781 RMS     0.108527846

 GradGradGradGradGradGradGradGradGradGradGradGradGradGradGradGradGradGrad
 Berny optimization.
 Search for a local minimum.
 Step number   1 out of a maximum of   34
 All quantities printed in internal units (Hartrees-Bohrs-Radians)
 Second derivative matrix not updated -- first step.
 ITU=  0
     Eigenvalues ---    0.00539   0.03554   0.38245   0.45620   0.47512
     Eigenvalues ---    0.47688   0.47688   0.47688   0.47688   0.47688
     Eigenvalues ---    0.47688   0.47688   0.47688   0.47688   0.47688
     Eigenvalues ---    0.47688   0.59506   0.67193   0.67193   0.67196
     Eigenvalues ---    0.91086   1.04823   1.07882   2.01215
 RFO step:  Lambda=-1.93735843D-01 EMin= 5.39045724D-03
 Linear search not attempted -- first point.
 Maximum step size (   0.300) exceeded in Quadratic search.
    -- Step size scaled by   0.614
 Variable       Old X    -DE/DX   Delta X   Delta X   Delta X     New X
                                 (Linear)    (Quad)   (Total)
    B1        2.45664   0.16731   0.00000   0.08161   0.08161   2.53826
    B2        2.45664   0.23221   0.00000   0.08972   0.08972   2.54636
    B3        2.45664   0.17080   0.00000   0.08325   0.08325   2.53989
    B4        2.45664   0.05492   0.00000   0.07610   0.07610   2.53274
    B5        2.45664   0.05138   0.00000   0.07437   0.07437   2.53102
    B6        2.64562  -0.02672   0.00000  -0.02526  -0.02526   2.62036
    B7        1.88973   0.07482   0.00000   0.06854   0.06854   1.95826
    B8        1.88973   0.07381   0.00000   0.06762   0.06762   1.95734
    B9        1.88973   0.07423   0.00000   0.06800   0.06800   1.95773
   B10        1.88973   0.07380   0.00000   0.06761   0.06761   1.95734
   B11        1.89163   0.07379   0.00000   0.06778   0.06778   1.95941
   B12        7.93685   0.00220   0.00000   0.00678   0.00678   7.94363
   B13        2.26767   0.01989   0.00000   0.00984   0.00984   2.27751
   B14        1.88973   0.08460   0.00000   0.07750   0.07750   1.96723
   B15        1.88973   0.08458   0.00000   0.07749   0.07749   1.96721
   B16        4.00622  -0.00103   0.00000  -0.00277  -0.00277   4.00345
   B17        1.88973   0.00860   0.00000   0.00788   0.00788   1.89760
   B18        2.51334   0.01885   0.00000   0.01468   0.01468   2.52801
   B19        2.32436  -0.00190   0.00000  -0.00106  -0.00106   2.32331
   B20        2.74010   0.00621   0.00000   0.00662   0.00662   2.74672
   B21        1.88973   0.07437   0.00000   0.06813   0.06813   1.95786
   B22        1.88973   0.07869   0.00000   0.07209   0.07209   1.96181
   B23        1.88973   0.07873   0.00000   0.07212   0.07212   1.96185
   B24        1.88973   0.08327   0.00000   0.07628   0.07628   1.96601
         Item               Value     Threshold  Converged?
 Maximum Force            0.232211     0.000450     NO 
 RMS     Force            0.087783     0.000300     NO 
 Maximum Displacement     0.089715     0.001800     NO 
 RMS     Displacement     0.061237     0.001200     NO 
 Predicted change in Energy=-9.117859D-02
 GradGradGradGradGradGradGradGradGradGradGradGradGradGradGradGradGradGrad

 ---------------------------------------------------------------------------------------------------
                            Z-MATRIX (ANGSTROMS AND DEGREES)
   CD    Cent   Atom    N1       Length/X        N2       Alpha/Y        N3        Beta/Z          J
 ---------------------------------------------------------------------------------------------------
      1      1  C 
      2      2  C        1   1.343188(     1)
      3      3  C        2   1.347475(     2)      1  120.000(    25)
      4      4  C        3   1.344054(     3)      2  120.000(    26)      1    0.000(    48)      0
      5      5  C        4   1.340268(     4)      3  120.000(    27)      2    0.000(    49)      0
      6      6  C        1   1.339356(     5)      2  119.978(    28)      3    1.717(    50)      0
      7      7  F        1   1.386635(     6)      2  120.000(    29)      3 -180.000(    51)      0
      8      8  H        2   1.036268(     7)      1  120.000(    30)      6 -178.283(    52)      0
      9      9  H        3   1.035781(     8)      2  120.000(    31)      1  180.000(    53)      0
     10     10  H        4   1.035985(     9)      3  120.000(    32)      2  180.000(    54)      0
     11     11  H        5   1.035777(    10)      4  120.000(    33)      3  180.000(    55)      0
     12     12  H        6   1.036873(    11)      1  119.916(    34)      2 -177.772(    56)      0
     13     13  O        1   4.203589(    12)      2  120.000(    35)      3 -180.000(    57)      0
     14     14  C       13   1.205205(    13)      1  179.900(    36)      2  180.000(    58)      0
     15     15  H       14   1.041011(    14)     13  120.000(    37)      1  -90.045(    59)      0
     16     16  H       14   1.041004(    15)     13  120.000(    38)      1   90.045(    60)      0
     17     17  H        7   2.118534(    16)      1  100.000(    39)      2   90.000(    61)      0
     18     18  N       17   1.004167(    17)      7  179.900(    40)      1   90.000(    62)      0
     19     19  C       18   1.337767(    18)     17  119.500(    41)      7    0.000(    63)      0
     20     20  O       19   1.229442(    19)     18  123.200(    42)     17 -180.000(    64)      0
     21     21  C       18   1.453504(    20)     17  121.900(    43)     19 -180.000(    65)      0
     22     22  H       21   1.036054(    21)     18  110.700(    44)     17 -180.000(    66)      0
     23     23  H       21   1.038147(    22)     18  110.700(    45)     17  -60.000(    67)      0
     24     24  H       21   1.038165(    23)     18  110.700(    46)     17   60.000(    68)      0
     25     25  H       19   1.040366(    24)     18  113.467(    47)     17    0.000(    69)      0
 ---------------------------------------------------------------------------------------------------
                         Z-Matrix orientation:                         
 ---------------------------------------------------------------------
 Center     Atomic      Atomic             Coordinates (Angstroms)
 Number     Number       Type             X           Y           Z
 ---------------------------------------------------------------------
      1          6           0        0.000000    0.000000    0.000000
      2          6           0        0.000000    0.000000    1.343188
      3          6           0        1.166948    0.000000    2.016926
      4          6           0        2.330933    0.000000    1.344899
      5          6           0        2.330933    0.000000    0.004631
      6          6           0        1.159655   -0.034767   -0.669226
      7          9           0       -1.200861    0.000000   -0.693318
      8          1           0       -0.897434    0.000000    1.861323
      9          1           0        1.166948    0.000000    3.052707
     10          1           0        3.228122    0.000000    1.862891
     11          1           0        3.227942    0.000000   -0.513258
     12          1           0        1.159917    0.000187   -1.705510
     13          8           0       -3.640415    0.000000   -2.101794
     14          6           0       -4.683100    0.000000   -2.706218
     15          1           0       -5.133770    0.901542   -2.966645
     16          1           0       -5.133767   -0.901536   -2.966643
     17          1           0       -1.519454    2.086349   -0.877257
     18          7           0       -1.669588    3.075259   -0.965961
     19          6           0       -1.185607    3.721997   -2.032316
     20          8           0       -1.329348    4.930099   -2.209390
     21          6           0       -2.401740    3.833797    0.034662
     22          1           0       -2.453020    4.834332   -0.229361
     23          1           0       -3.370594    3.473734    0.131752
     24          1           0       -1.936023    3.765816    0.960013
     25          1           0       -0.676451    3.103507   -2.696087
 ---------------------------------------------------------------------
                    Distance matrix (angstroms):
                    1          2          3          4          5
     1  C    0.000000
     2  C    1.343188   0.000000
     3  C    2.330184   1.347475   0.000000
     4  C    2.691097   2.330933   1.344054   0.000000
     5  C    2.330937   2.687933   2.324692   1.340268   0.000000
     6  C    1.339356   2.322891   2.686387   2.330193   1.351734
     7  F    1.386635   2.364196   3.598880   4.077732   3.600097
     8  H    2.066376   1.036268   2.070238   3.269411   3.724199
     9  H    3.268148   2.069836   1.035781   2.066754   3.262764
    10  H    3.727081   3.269688   2.066922   1.035985   2.063512
    11  H    3.268493   3.723709   3.263362   2.063340   1.035777
    12  H    2.062564   3.261896   3.722442   3.267456   2.072645
    13  O    4.203589   5.012038   6.330450   6.894685   6.331984
    14  C    5.408793   6.191051   7.518719   8.099889   7.519664
    15  H    5.997446   6.763360   8.083799   8.667409   8.084742
    16  H    5.997441   6.763355   8.083794   8.667405   8.084737
    17  H    2.726018   3.404699   4.466084   4.910836   4.467221
    18  N    3.630127   4.192483   5.138168   5.549907   5.138428
    19  C    4.403321   5.162650   5.981984   6.133914   5.510759
    20  O    5.563672   6.220439   6.956947   7.094822   6.527283
    21  C    4.524109   4.709416   5.600259   6.230001   6.090739
    22  H    5.425927   5.644554   6.443659   6.981065   6.805272
    23  H    4.842013   4.989520   6.017474   6.785717   6.677604
    24  H    4.341795   4.251633   4.992681   5.704071   5.770706
    25  H    4.166320   5.138588   5.936528   5.916559   5.096075
                    6          7          8          9         10
     6  C    0.000000
     7  F    2.360895   0.000000
     8  H    3.261366   2.572597   0.000000
     9  H    3.722103   4.431616   2.383500   0.000000
    10  H    3.269768   5.113716   4.125557   2.379937   0.000000
    11  H    2.074451   4.432463   4.759975   4.118714   2.376149
    12  H    1.036873   2.568620   4.117643   4.758222   4.124434
    13  O    5.009404   2.816954   4.819776   7.048377   7.930670
    14  C    6.187756   4.022158   5.932427   8.209036   9.135873
    15  H    6.764762   4.631260   6.486030   8.760390   9.698373
    16  H    6.755485   4.631255   6.486026   8.760385   9.698368
    17  H    3.423454   2.118534   3.498511   5.197522   5.865215
    18  N    4.214847   3.122701   4.248173   5.801108   6.437949
    19  C    4.633740   3.955555   5.394138   6.726458   6.964690
    20  O    5.763431   5.159541   6.408052   7.630664   7.852381
    21  C    5.305166   4.082899   4.505289   6.045009   7.052359
    22  H    6.078900   5.015369   5.491955   6.873638   7.747494
    23  H    5.785698   4.177955   4.601604   6.417795   7.655503
    24  H    5.165470   4.177959   4.009040   5.309348   6.454840
    25  H    4.162716   3.730662   5.518203   6.788115   6.757346
                   11         12         13         14         15
    11  H    0.000000
    12  H    2.387089   0.000000
    13  O    7.049665   4.816662   0.000000
    14  C    8.209364   5.928091   1.205205   0.000000
    15  H    8.760715   6.481774   1.947012   1.041011   0.000000
    16  H    8.760710   6.481822   1.947005   1.041004   1.803078
    17  H    5.198377   3.495297   3.217268   4.207921   4.339653
    18  N    5.800687   4.243713   3.825114   4.644025   4.552838
    19  C    5.969943   4.411366   4.459167   5.151685   4.941248
    20  O    6.924712   5.545662   5.445960   5.983340   5.592524
    21  C    6.833121   5.514541   4.560347   5.235936   5.006990
    22  H    7.464898   6.212993   5.318522   5.871869   5.490536
    23  H    7.484888   5.997215   4.138642   4.673710   4.396023
    24  H    6.558845   5.556062   5.144024   5.930350   5.817929
    25  H    5.444335   3.739529   4.332438   5.068046   4.978909
                   16         17         18         19         20
    16  H    0.000000
    17  H    5.133833   0.000000
    18  N    5.640759   1.004167   0.000000
    19  C    6.151259   2.030015   1.337767   0.000000
    20  O    7.003927   3.146050   2.258829   1.229442   0.000000
    21  C    6.236600   2.159537   1.453504   2.400808   2.718027
    22  H    6.897775   2.973672   2.061718   2.468658   2.278667
    23  H    5.643741   2.523817   2.063292   3.085286   3.430543
    24  H    6.886826   2.523827   2.063306   3.085300   3.430557
    25  H    5.998435   2.247978   1.995108   1.040366   1.999897
                   21         22         23         24         25
    21  C    0.000000
    22  H    1.036054   0.000000
    23  H    1.038147   1.680349   0.000000
    24  H    1.038165   1.680363   1.682059   0.000000
    25  H    3.311637   3.498098   3.923282   3.923295   0.000000
 Stoichiometry    C9H12FNO2
 Framework group  C1[X(C9H12FNO2)]
 Deg. of freedom    69
 Full point group                 C1      NOp   1
 Largest Abelian subgroup         C1      NOp   1
 Largest concise Abelian subgroup C1      NOp   1
                         Standard orientation:                         
 ---------------------------------------------------------------------
 Center     Atomic      Atomic             Coordinates (Angstroms)
 Number     Number       Type             X           Y           Z
 ---------------------------------------------------------------------
      1          6           0       -1.450091    0.710716   -0.054095
      2          6           0       -2.099508    0.545721    1.110031
      3          6           0       -3.319482   -0.026210    1.125768
      4          6           0       -3.886523   -0.431588   -0.023413
      5          6           0       -3.238518   -0.266952   -1.185008
      6          6           0       -2.029879    0.338083   -1.202513
      7          9           0       -0.194663    1.299268   -0.070288
      8          1           0       -1.662319    0.858268    1.996051
      9          1           0       -3.820271   -0.153444    2.023467
     10          1           0       -4.824481   -0.871308   -0.011314
     11          1           0       -3.675501   -0.579351   -2.070608
     12          1           0       -1.514258    0.433826   -2.096981
     13          8           0        2.355744    2.494914   -0.103185
     14          6           0        3.446983    3.006241   -0.119351
     15          1           0        4.299701    2.416164   -0.027775
     16          1           0        3.536788    4.038123   -0.223485
     17          1           0        1.021173   -0.421364    0.151872
     18          7           0        1.597530   -1.237109    0.255432
     19          6           0        2.015872   -1.890773   -0.834217
     20          8           0        2.722800   -2.895516   -0.786568
     21          6           0        1.995735   -1.735459    1.561477
     22          1           0        2.586024   -2.581563    1.466219
     23          1           0        2.538875   -1.017358    2.078274
     24          1           0        1.162697   -1.983198    2.129333
     25          1           0        1.684940   -1.466304   -1.724539
 ---------------------------------------------------------------------
 Rotational constants (GHZ):           0.7533730           0.3885146           0.3001381
 Standard basis: 6-311++G(d,p) (5D, 7F)
 There are   383 symmetry adapted cartesian basis functions of A   symmetry.
 There are   370 symmetry adapted basis functions of A   symmetry.
   370 basis functions,   576 primitive gaussians,   383 cartesian basis functions
    49 alpha electrons       49 beta electrons
       nuclear repulsion energy       736.1123580398 Hartrees.
 NAtoms=   25 NActive=   25 NUniq=   25 SFac= 1.00D+00 NAtFMM=   60 NAOKFM=F Big=F
 Integral buffers will be    131072 words long.
 Raffenetti 2 integral format.
 Two-electron integral symmetry is turned on.
 ------------------------------------------------------------------------------
 Polarizable Continuum Model (PCM)
 =================================
 Model                : PCM.
 Atomic radii         : UFF (Universal Force Field).
 Polarization charges : Total charges.
 Charge compensation  : None.
 Solution method      : On-the-fly selection.
 Cavity type          : Scaled VdW (van der Waals Surface) (Alpha=1.100).
 Cavity algorithm     : GePol (No added spheres)
                        Default sphere list used, NSphG=   25.
                        Lebedev-Laikov grids with approx.  5.0 points / Ang**2.
                        Smoothing algorithm: York/Karplus (Gamma=1.0000).
                        Polarization charges: spherical gaussians, with
                                              point-specific exponents (IZeta= 3).
                        Self-potential: point-specific (ISelfS= 7).
                        Self-field    : sphere-specific E.n sum rule (ISelfD= 2).
 1st derivatives      : Analytical E(r).r(x)/FMM algorithm (CHGder, D1EAlg=3).
                        Cavity 1st derivative terms included.
 Solvent              : DiChloroEthane, Eps=  10.125000 Eps(inf)=   2.087447
 ------------------------------------------------------------------------------
 One-electron integrals computed using PRISM.
 NBasis=   370 RedAO= T EigKep=  4.84D-06  NBF=   370
 NBsUse=   369 1.00D-06 EigRej=  7.44D-07 NBFU=   369
 Initial guess from the checkpoint file:  "/home/lywu/software/g16/scr/Gau-5961.chk"
 B after Tr=    -0.000000   -0.000000   -0.000000
         Rot=    0.999990    0.000846    0.000131    0.004426 Ang=   0.52 deg.
 ExpMin= 3.60D-02 ExpMax= 1.14D+04 ExpMxC= 1.72D+03 IAcc=3 IRadAn=         5 AccDes= 0.00D+00
 Harris functional with IExCor= 1009 and IRadAn=       5 diagonalized for initial guess.
 HarFok:  IExCor= 1009 AccDes= 0.00D+00 IRadAn=         5 IDoV= 1 UseB2=F ITyADJ=14
 ICtDFT=  3500011 ScaDFX=  1.000000  1.000000  1.000000  1.000000
 FoFCou: FMM=F IPFlag=           0 FMFlag=      100000 FMFlg1=           0
         NFxFlg=           0 DoJE=T BraDBF=F KetDBF=T FulRan=T
         wScrn=  0.000000 ICntrl=       500 IOpCl=  0 I1Cent=   200000004 NGrid=           0
         NMat0=    1 NMatS0=      1 NMatT0=    0 NMatD0=    1 NMtDS0=    0 NMtDT0=    0
 Petite list used in FoFCou.
 Requested convergence on RMS density matrix=1.00D-08 within 128 cycles.
 Requested convergence on MAX density matrix=1.00D-06.
 Requested convergence on             energy=1.00D-06.
 No special actions if energy rises.
 Inv3:  Mode=1 IEnd=    16793868.
 Iteration    1 A*A^-1 deviation from unit magnitude is 5.55D-15 for   2362.
 Iteration    1 A*A^-1 deviation from orthogonality  is 1.75D-15 for   2110    228.
 Iteration    1 A^-1*A deviation from unit magnitude is 5.33D-15 for   2362.
 Iteration    1 A^-1*A deviation from orthogonality  is 2.16D-15 for   2235   1708.
 Error on total polarization charges =  0.01245
 SCF Done:  E(RM062X) =  -655.083759523     A.U. after   12 cycles
            NFock= 12  Conv=0.93D-08     -V/T= 2.0012
 D1PCM: PCM CHGder 1st derivatives, ID1Alg=3 FixD1E=F DoIter=F DoCFld=F I1PDM=0.
 Calling FoFJK, ICntrl=      2127 FMM=F ISym2X=0 I1Cent= 0 IOpClX= 0 NMat=1 NMatS=1 NMatT=0.
 ***** Axes restored to original set *****
 -------------------------------------------------------------------
 Center     Atomic                   Forces (Hartrees/Bohr)
 Number     Number              X              Y              Z
 -------------------------------------------------------------------
      1        6          -0.039683979   -0.004889273   -0.020211412
      2        6          -0.024373344    0.000974562    0.008098781
      3        6          -0.002004885    0.000017314    0.009301801
      4        6           0.016068794    0.000440526    0.012006944
      5        6           0.004217498   -0.003389757   -0.010241018
      6        6          -0.000006976    0.006610671   -0.025937497
      7        9           0.020800670    0.001726300    0.012117105
      8        1          -0.033914326    0.000280927    0.017840895
      9        1          -0.001709012   -0.000137071    0.037756440
     10        1           0.032885123    0.000539475    0.019103372
     11        1           0.031679715    0.000296775   -0.020586402
     12        1          -0.001453915   -0.001773015   -0.037912803
     13        8           0.003246718    0.000204399    0.001916851
     14        6           0.039403400    0.000102328    0.022975991
     15        1          -0.022170456    0.036377913   -0.012899581
     16        1          -0.022162167   -0.036374855   -0.012892498
     17        1          -0.002066729   -0.005635433    0.001125261
     18        7          -0.001649308    0.015010013   -0.000300554
     19        6          -0.020864554    0.029811486    0.025857170
     20        8           0.004952507   -0.005412993   -0.006823003
     21        6           0.014159425   -0.027425575   -0.014911905
     22        1           0.001182159    0.036081651   -0.014731440
     23        1          -0.038044262   -0.015731254    0.002747455
     24        1           0.019611626   -0.003924769    0.036099804
     25        1           0.021896280   -0.023780345   -0.029499757
 -------------------------------------------------------------------
 Cartesian Forces:  Max     0.039683979 RMS     0.019404115
 -----------------------------------------------------------------------------------------------
                       Internal Coordinate Forces (Hartree/Bohr or radian)
  Cent   Atom   N1       Length/X         N2         Alpha/Y        N3         Beta/Z          J
 -----------------------------------------------------------------------------------------------
      1  C 
      2  C        1   0.073281(     1)
      3  C        2   0.093937(     2)      1   0.200044(    25)
      4  C        3   0.073342(     3)      2   0.195603(    26)      1  -0.010929(    48)     0
      5  C        4   0.030827(     4)      3   0.087026(    27)      2  -0.006784(    49)     0
      6  C        1   0.030513(     5)      2   0.144702(    28)      3  -0.010124(    50)     0
      7  F        1  -0.023141(     6)      2  -0.000068(    29)      3  -0.000607(    51)     0
      8  H        2   0.038291(     7)      1  -0.002950(    30)      6  -0.000476(    52)     0
      9  H        3   0.037756(     8)      2  -0.003345(    31)      1   0.000232(    53)     0
     10  H        4   0.038031(     9)      3  -0.000199(    32)      2  -0.000915(    54)     0
     11  H        5   0.037729(    10)      4   0.003892(    33)      3  -0.000503(    55)     0
     12  H        6   0.037831(    11)      1  -0.002569(    34)      2  -0.005296(    56)     0
     13  O        1   0.001907(    12)      2  -0.000430(    35)      3   0.002327(    57)     0
     14  C       13   0.005677(    13)      1  -0.000067(    36)      2   0.000003(    58)     0
     15  H       14   0.044329(    14)     13   0.007918(    37)      1   0.000119(    59)     0
     16  H       14   0.044321(    15)     13   0.007902(    38)      1  -0.000116(    60)     0
     17  H        7  -0.000830(    16)      1   0.002497(    39)      2  -0.000154(    61)     0
     18  N       17   0.004510(    17)      7  -0.000026(    40)      1  -0.000286(    62)     0
     19  C       18   0.010806(    18)     17  -0.028424(    41)      7  -0.000282(    63)     0
     20  O       19  -0.004915(    19)     18   0.020283(    42)     17  -0.000147(    64)     0
     21  C       18   0.002153(    20)     17  -0.032130(    43)     19  -0.000136(    65)     0
     22  H       21   0.038540(    21)     18  -0.011574(    44)     17  -0.000036(    66)     0
     23  H       21   0.041218(    22)     18  -0.003616(    45)     17   0.000477(    67)     0
     24  H       21   0.041232(    23)     18  -0.003459(    46)     17  -0.000448(    68)     0
     25  H       19   0.043675(    24)     18   0.005460(    47)     17  -0.000035(    69)     0
 -----------------------------------------------------------------------------------------------
 Internal  Forces:  Max     0.200043546 RMS     0.046596415

 GradGradGradGradGradGradGradGradGradGradGradGradGradGradGradGradGradGrad
 Berny optimization.
 Search for a local minimum.
 Step number   2 out of a maximum of   34
 All quantities printed in internal units (Hartrees-Bohrs-Radians)
 Update second derivatives using D2CorN and points    1    2
 DE= -8.72D-02 DEPred=-9.12D-02 R= 9.57D-01
 TightC=F SS=  1.41D+00  RLast= 3.00D-01 DXNew= 5.0454D-01 9.0000D-01
 Trust test= 9.57D-01 RLast= 3.00D-01 DXMaxT set to 5.05D-01
 ITU=  1  0
     Eigenvalues ---    0.00541   0.03554   0.38251   0.45252   0.47526
     Eigenvalues ---    0.47679   0.47688   0.47688   0.47688   0.47688
     Eigenvalues ---    0.47688   0.47688   0.47688   0.47688   0.47688
     Eigenvalues ---    0.50380   0.59494   0.67179   0.67194   0.70203
     Eigenvalues ---    0.91096   1.04877   1.07886   2.02149
 RFO step:  Lambda=-6.46322454D-03 EMin= 5.40742606D-03
 Quartic linear search produced a step of  1.20717.
 Variable       Old X    -DE/DX   Delta X   Delta X   Delta X     New X
                                 (Linear)    (Quad)   (Total)
    B1        2.53826   0.07328   0.09852  -0.01371   0.08481   2.62307
    B2        2.54636   0.09394   0.10830  -0.03438   0.07392   2.62028
    B3        2.53989   0.07334   0.10050  -0.01739   0.08311   2.62300
    B4        2.53274   0.03083   0.09186  -0.00098   0.09088   2.62362
    B5        2.53102   0.03051   0.08978   0.00196   0.09174   2.62276
    B6        2.62036  -0.02314  -0.03049  -0.05181  -0.08230   2.53806
    B7        1.95826   0.03829   0.08274   0.01382   0.09655   2.05482
    B8        1.95734   0.03776   0.08163   0.01353   0.09516   2.05250
    B9        1.95773   0.03803   0.08209   0.01389   0.09598   2.05371
   B10        1.95734   0.03773   0.08162   0.01342   0.09504   2.05237
   B11        1.95941   0.03783   0.08182   0.01405   0.09586   2.05527
   B12        7.94363   0.00191   0.00819   0.23596   0.24414   8.18777
   B13        2.27751   0.00568   0.01187  -0.00937   0.00250   2.28001
   B14        1.96723   0.04433   0.09356   0.02046   0.11401   2.08124
   B15        1.96721   0.04432   0.09354   0.02045   0.11399   2.08120
   B16        4.00345  -0.00083  -0.00334  -0.02600  -0.02934   3.97411
   B17        1.89760   0.00451   0.00951   0.00210   0.01161   1.90921
   B18        2.52801   0.01081   0.01772   0.00642   0.02414   2.55215
   B19        2.32331  -0.00492  -0.00127  -0.00980  -0.01107   2.31224
   B20        2.74672   0.00215   0.00799  -0.00413   0.00386   2.75058
   B21        1.95786   0.03854   0.08225   0.01596   0.09821   2.05607
   B22        1.96181   0.04122   0.08702   0.01895   0.10598   2.06779
   B23        1.96185   0.04123   0.08706   0.01893   0.10600   2.06785
   B24        1.96601   0.04367   0.09208   0.02033   0.11242   2.07842
         Item               Value     Threshold  Converged?
 Maximum Force            0.093937     0.000450     NO 
 RMS     Force            0.040879     0.000300     NO 
 Maximum Displacement     0.244143     0.001800     NO 
 RMS     Displacement     0.095938     0.001200     NO 
 Predicted change in Energy=-2.567383D-02
 GradGradGradGradGradGradGradGradGradGradGradGradGradGradGradGradGradGrad

 ---------------------------------------------------------------------------------------------------
                            Z-MATRIX (ANGSTROMS AND DEGREES)
   CD    Cent   Atom    N1       Length/X        N2       Alpha/Y        N3        Beta/Z          J
 ---------------------------------------------------------------------------------------------------
      1      1  C 
      2      2  C        1   1.388070(     1)
      3      3  C        2   1.386594(     2)      1  120.000(    25)
      4      4  C        3   1.388032(     3)      2  120.000(    26)      1    0.000(    48)      0
      5      5  C        4   1.388359(     4)      3  120.000(    27)      2    0.000(    49)      0
      6      6  C        1   1.387903(     5)      2  119.978(    28)      3    1.717(    50)      0
      7      7  F        1   1.343083(     6)      2  120.000(    29)      3 -180.000(    51)      0
      8      8  H        2   1.087362(     7)      1  120.000(    30)      6 -178.283(    52)      0
      9      9  H        3   1.086138(     8)      2  120.000(    31)      1  180.000(    53)      0
     10     10  H        4   1.086776(     9)      3  120.000(    32)      2  180.000(    54)      0
     11     11  H        5   1.086069(    10)      4  120.000(    33)      3  180.000(    55)      0
     12     12  H        6   1.087602(    11)      1  119.916(    34)      2 -177.772(    56)      0
     13     13  O        1   4.332784(    12)      2  120.000(    35)      3 -180.000(    57)      0
     14     14  C       13   1.206531(    13)      1  179.900(    36)      2  180.000(    58)      0
     15     15  H       14   1.101343(    14)     13  120.000(    37)      1  -90.045(    59)      0
     16     16  H       14   1.101325(    15)     13  120.000(    38)      1   90.045(    60)      0
     17     17  H        7   2.103007(    16)      1  100.000(    39)      2   90.000(    61)      0
     18     18  N       17   1.010311(    17)      7  179.900(    40)      1   90.000(    62)      0
     19     19  C       18   1.350542(    18)     17  119.500(    41)      7    0.000(    63)      0
     20     20  O       19   1.223582(    19)     18  123.200(    42)     17 -180.000(    64)      0
     21     21  C       18   1.455546(    20)     17  121.900(    43)     19 -180.000(    65)      0
     22     22  H       21   1.088025(    21)     18  110.700(    44)     17 -180.000(    66)      0
     23     23  H       21   1.094227(    22)     18  110.700(    45)     17  -60.000(    67)      0
[...]
                 (A) (A) (A) (A) (A) (A) (A) (A) (A) (A) (A) (A)
                 (A) (A) (A) (A) (A) (A) (A) (A) (A) (A) (A) (A)
                 (A) (A) (A) (A) (A) (A) (A) (A) (A) (A) (A) (A)
                 (A) (A) (A) (A) (A) (A) (A) (A) (A) (A) (A) (A)
                 (A) (A) (A) (A) (A) (A) (A) (A) (A) (A) (A) (A)
                 (A) (A) (A) (A) (A) (A) (A) (A) (A) (A) (A) (A)
                 (A) (A) (A) (A) (A) (A) (A) (A) (A) (A) (A) (A)
                 (A) (A) (A) (A) (A) (A) (A) (A) (A) (A) (A) (A)
                 (A) (A) (A) (A) (A) (A) (A) (A) (A) (A) (A) (A)
                 (A) (A) (A) (A) (A) (A) (A) (A) (A) (A) (A) (A)
                 (A) (A) (A) (A) (A) (A) (A) (A) (A) (A) (A) (A)
                 (A) (A) (A) (A) (A) (A) (A) (A) (A) (A) (A) (A)
                 (A) (A) (A) (A) (A) (A) (A) (A) (A)
 The electronic state is 1-A.
 Alpha  occ. eigenvalues --  -25.27352 -19.64577 -19.59774 -14.77655 -10.64422
 Alpha  occ. eigenvalues --  -10.64256 -10.63921 -10.56379 -10.56043 -10.56040
 Alpha  occ. eigenvalues --  -10.55934 -10.55930 -10.55235  -1.39200  -1.19283
 Alpha  occ. eigenvalues --   -1.16724  -1.03335  -0.98148  -0.86438  -0.86048
 Alpha  occ. eigenvalues --   -0.80722  -0.72298  -0.71933  -0.71607  -0.68128
 Alpha  occ. eigenvalues --   -0.64275  -0.63010  -0.58867  -0.58660  -0.58347
 Alpha  occ. eigenvalues --   -0.58238  -0.54209  -0.53953  -0.52667  -0.52573
 Alpha  occ. eigenvalues --   -0.50646  -0.49585  -0.49252  -0.47790  -0.45715
 Alpha  occ. eigenvalues --   -0.45578  -0.44951  -0.44001  -0.41714  -0.34882
 Alpha  occ. eigenvalues --   -0.34467  -0.32638  -0.32409  -0.31587
 Alpha virt. eigenvalues --   -0.00805  -0.00490   0.00242   0.00500   0.00827
 Alpha virt. eigenvalues --    0.01081   0.01740   0.01872   0.02695   0.02906
 Alpha virt. eigenvalues --    0.03733   0.03963   0.04354   0.05005   0.05142
 Alpha virt. eigenvalues --    0.05861   0.06579   0.07341   0.07633   0.08139
 Alpha virt. eigenvalues --    0.08852   0.09047   0.09322   0.10743   0.10982
 Alpha virt. eigenvalues --    0.11118   0.11607   0.12251   0.12887   0.12979
 Alpha virt. eigenvalues --    0.13409   0.13518   0.13638   0.13948   0.14660
 Alpha virt. eigenvalues --    0.14722   0.14882   0.15213   0.15603   0.15920
 Alpha virt. eigenvalues --    0.16327   0.16894   0.17134   0.17301   0.18063
 Alpha virt. eigenvalues --    0.18466   0.19482   0.19662   0.19962   0.20906
 Alpha virt. eigenvalues --    0.20992   0.21799   0.22263   0.22504   0.22887
 Alpha virt. eigenvalues --    0.24500   0.24871   0.25047   0.25694   0.26009
 Alpha virt. eigenvalues --    0.26339   0.27148   0.28062   0.28680   0.29526
 Alpha virt. eigenvalues --    0.30140   0.30616   0.31151   0.31240   0.31418
 Alpha virt. eigenvalues --    0.31878   0.32478   0.32849   0.33746   0.34145
 Alpha virt. eigenvalues --    0.35161   0.36029   0.36793   0.37395   0.38412
 Alpha virt. eigenvalues --    0.40015   0.40504   0.41398   0.41696   0.43157
 Alpha virt. eigenvalues --    0.43753   0.46543   0.48308   0.49769   0.50675
 Alpha virt. eigenvalues --    0.51583   0.53150   0.53335   0.54534   0.55884
 Alpha virt. eigenvalues --    0.57046   0.57999   0.58366   0.58575   0.59165
 Alpha virt. eigenvalues --    0.59547   0.60490   0.60731   0.61554   0.62680
 Alpha virt. eigenvalues --    0.63592   0.64377   0.64652   0.66672   0.68038
 Alpha virt. eigenvalues --    0.68662   0.69178   0.70943   0.71512   0.72372
 Alpha virt. eigenvalues --    0.72821   0.73298   0.76130   0.76596   0.76999
 Alpha virt. eigenvalues --    0.78210   0.79826   0.80925   0.81622   0.82524
 Alpha virt. eigenvalues --    0.85320   0.87560   0.87679   0.89502   0.90583
 Alpha virt. eigenvalues --    0.91346   0.92244   0.93624   0.94574   0.95813
 Alpha virt. eigenvalues --    0.96865   0.97343   1.00247   1.01754   1.04868
 Alpha virt. eigenvalues --    1.05684   1.06577   1.06683   1.07803   1.10631
 Alpha virt. eigenvalues --    1.11086   1.12823   1.14058   1.14648   1.15536
 Alpha virt. eigenvalues --    1.17042   1.18276   1.20711   1.21411   1.23632
 Alpha virt. eigenvalues --    1.23733   1.24503   1.28532   1.33515   1.33762
 Alpha virt. eigenvalues --    1.35048   1.36819   1.41276   1.45057   1.48951
 Alpha virt. eigenvalues --    1.49237   1.50840   1.51256   1.52755   1.52879
 Alpha virt. eigenvalues --    1.55456   1.56485   1.58280   1.59095   1.59622
 Alpha virt. eigenvalues --    1.60292   1.61001   1.61356   1.62132   1.63127
 Alpha virt. eigenvalues --    1.65537   1.68647   1.68780   1.69847   1.71030
 Alpha virt. eigenvalues --    1.71539   1.72538   1.73673   1.77099   1.77765
 Alpha virt. eigenvalues --    1.78124   1.79954   1.80077   1.81210   1.82530
 Alpha virt. eigenvalues --    1.85377   1.86728   1.86953   1.90121   1.91300
 Alpha virt. eigenvalues --    1.93982   1.94691   1.96311   1.96626   1.98738
 Alpha virt. eigenvalues --    1.99371   2.00831   2.04186   2.04696   2.06480
 Alpha virt. eigenvalues --    2.09287   2.09424   2.09888   2.11124   2.17271
 Alpha virt. eigenvalues --    2.18357   2.21643   2.29479   2.30372   2.34144
 Alpha virt. eigenvalues --    2.35004   2.42566   2.44070   2.45060   2.47563
 Alpha virt. eigenvalues --    2.48965   2.49636   2.50222   2.51122   2.52302
 Alpha virt. eigenvalues --    2.52758   2.53022   2.55991   2.58291   2.62950
 Alpha virt. eigenvalues --    2.64569   2.64862   2.66001   2.69676   2.70624
 Alpha virt. eigenvalues --    2.72283   2.73010   2.73882   2.73995   2.74211
 Alpha virt. eigenvalues --    2.76617   2.77256   2.78923   2.85151   2.85240
 Alpha virt. eigenvalues --    2.86081   2.87203   2.88705   2.89239   2.91602
 Alpha virt. eigenvalues --    2.94343   2.94426   2.95472   2.97811   2.98294
 Alpha virt. eigenvalues --    2.99588   3.00275   3.02465   3.13830   3.18526
 Alpha virt. eigenvalues --    3.21265   3.26430   3.38783   3.39417   3.42041
 Alpha virt. eigenvalues --    3.43069   3.44158   3.48242   3.53310   3.55995
 Alpha virt. eigenvalues --    3.56624   3.60588   3.65413   3.65613   3.74468
 Alpha virt. eigenvalues --    3.76222   3.79495   3.80432   3.86894   3.88717
 Alpha virt. eigenvalues --    3.95598   3.96679   4.01357   4.02630   4.03638
 Alpha virt. eigenvalues --    4.06717   4.08951   4.16006   4.19244   4.20420
 Alpha virt. eigenvalues --    4.85455   4.93036   4.96193   5.00518   5.09953
 Alpha virt. eigenvalues --    5.16868   5.21641   5.31530   5.78866   5.85404
 Alpha virt. eigenvalues --    6.55481   6.59692   6.89363  23.67011  23.98169
 Alpha virt. eigenvalues --   23.99684  24.00824  24.03516  24.05259  24.15304
 Alpha virt. eigenvalues --   24.17031  24.26934  35.68648  50.04083  50.10609
 Alpha virt. eigenvalues --   66.94693
          Condensed to atoms (all electrons):
               1          2          3          4          5          6
     1  C   15.134687  -6.291069   4.031186  -4.444404   4.313297  -6.331041
     2  C   -6.291069  14.110986  -4.032276   3.768360  -3.987742   1.848508
     3  C    4.031186  -4.032276   9.967056  -3.604105   3.824309  -3.958890
     4  C   -4.444404   3.768360  -3.604105   9.877021  -3.882267   4.005447
     5  C    4.313297  -3.987742   3.824309  -3.882267  10.546732  -4.551346
     6  C   -6.331041   1.848508  -3.958890   4.005447  -4.551346  14.385117
     7  F    0.728937  -0.424770   0.076151  -0.049161   0.059187  -0.405233
     8  H   -0.320617   0.708932  -0.164365   0.118631  -0.098197   0.061307
     9  H    0.110189  -0.091204   0.399274  -0.105007   0.043807  -0.027561
    10  H   -0.045946   0.039060  -0.069611   0.441229  -0.081600   0.049012
    11  H    0.137508  -0.042523   0.066848  -0.146678   0.460546  -0.145038
    12  H   -0.422765   0.102554  -0.133294   0.177165  -0.254665   0.820329
    13  O    0.007235  -0.002925  -0.001240   0.000177  -0.001211  -0.000670
    14  C    0.001995  -0.001875   0.000708  -0.000254   0.000668  -0.001791
    15  H    0.000229  -0.000050  -0.000064   0.000025  -0.000088  -0.000035
    16  H   -0.000462   0.000176   0.000065  -0.000027   0.000113  -0.000049
    17  H   -0.034326   0.028825  -0.027205   0.023237  -0.015955   0.004734
    18  N   -0.016237  -0.004126   0.009779   0.005106  -0.002052   0.023805
    19  C    0.031743  -0.033095   0.005426  -0.002969   0.001193   0.011600
    20  O    0.001757  -0.000412  -0.000060  -0.000390   0.001303  -0.001999
    21  C   -0.031734   0.048355  -0.016844   0.007314  -0.008127  -0.004954
    22  H    0.005568  -0.001913   0.001961  -0.001163   0.000721  -0.003162
    23  H    0.007105  -0.006237  -0.000366  -0.000723  -0.000144   0.001636
    24  H    0.002891   0.004709   0.000401  -0.000378   0.002960  -0.007050
    25  H    0.036491  -0.003528   0.001822  -0.003788  -0.003768  -0.013510
               7          8          9         10         11         12
     1  C    0.728937  -0.320617   0.110189  -0.045946   0.137508  -0.422765
     2  C   -0.424770   0.708932  -0.091204   0.039060  -0.042523   0.102554
     3  C    0.076151  -0.164365   0.399274  -0.069611   0.066848  -0.133294
     4  C   -0.049161   0.118631  -0.105007   0.441229  -0.146678   0.177165
     5  C    0.059187  -0.098197   0.043807  -0.081600   0.460546  -0.254665
     6  C   -0.405233   0.061307  -0.027561   0.049012  -0.145038   0.820329
     7  F    9.145451  -0.027729   0.000949  -0.000395   0.000360  -0.021278
     8  H   -0.027729   0.466253  -0.006612   0.002562  -0.000983   0.005105
     9  H    0.000949  -0.006612   0.437631  -0.001779   0.001458  -0.001299
    10  H   -0.000395   0.002562  -0.001779   0.445744  -0.004197   0.004244
    11  H    0.000360  -0.000983   0.001458  -0.004197   0.445292  -0.014893
    12  H   -0.021278   0.005105  -0.001299   0.004244  -0.014893   0.496581
    13  O    0.002487   0.000722  -0.000013   0.000000  -0.000015   0.000796
    14  C   -0.000276  -0.000332   0.000010  -0.000002   0.000011  -0.000394
    15  H   -0.000162  -0.000011  -0.000001   0.000000  -0.000001  -0.000016
    16  H   -0.000115   0.000009   0.000001  -0.000000   0.000002  -0.000010
    17  H    0.088655  -0.001411  -0.000385  -0.000224  -0.000622   0.003918
    18  N   -0.027302  -0.001786  -0.000008   0.000135  -0.000227   0.001403
    19  C   -0.010680   0.000492   0.000185   0.000011  -0.000224  -0.001736
    20  O    0.000009   0.000097  -0.000005  -0.000010   0.000042  -0.000056
    21  C   -0.003120   0.003038  -0.000613   0.000162  -0.000110   0.000163
    22  H   -0.000732   0.000059   0.000076  -0.000017   0.000048  -0.000290
    23  H   -0.001181  -0.000649   0.000142  -0.000008   0.000005   0.000083
    24  H    0.000937  -0.000800  -0.000499  -0.000031   0.000063  -0.000433
    25  H   -0.002699   0.000328   0.000058  -0.000110   0.000435  -0.006551
              13         14         15         16         17         18
     1  C    0.007235   0.001995   0.000229  -0.000462  -0.034326  -0.016237
     2  C   -0.002925  -0.001875  -0.000050   0.000176   0.028825  -0.004126
     3  C   -0.001240   0.000708  -0.000064   0.000065  -0.027205   0.009779
     4  C    0.000177  -0.000254   0.000025  -0.000027   0.023237   0.005106
     5  C   -0.001211   0.000668  -0.000088   0.000113  -0.015955  -0.002052
     6  C   -0.000670  -0.001791  -0.000035  -0.000049   0.004734   0.023805
     7  F    0.002487  -0.000276  -0.000162  -0.000115   0.088655  -0.027302
     8  H    0.000722  -0.000332  -0.000011   0.000009  -0.001411  -0.001786
     9  H   -0.000013   0.000010  -0.000001   0.000001  -0.000385  -0.000008
    10  H    0.000000  -0.000002   0.000000  -0.000000  -0.000224   0.000135
    11  H   -0.000015   0.000011  -0.000001   0.000002  -0.000622  -0.000227
    12  H    0.000796  -0.000394  -0.000016  -0.000010   0.003918   0.001403
    13  O    8.138066   0.293365  -0.081350  -0.083867   0.023559  -0.002751
    14  C    0.293365   4.882750   0.393326   0.398549  -0.005759   0.001177
    15  H   -0.081350   0.393326   0.654541  -0.103978   0.000629  -0.000050
    16  H   -0.083867   0.398549  -0.103978   0.659340   0.000109   0.000249
    17  H    0.023559  -0.005759   0.000629   0.000109   0.533636   0.312434
    18  N   -0.002751   0.001177  -0.000050   0.000249   0.312434   7.127171
    19  C   -0.003473   0.000186   0.000230  -0.000230  -0.089926   0.158342
    20  O    0.000042  -0.000119   0.000067  -0.000023   0.007789  -0.168070
    21  C   -0.001957   0.001050  -0.000174   0.000020  -0.058150   0.124689
    22  H    0.000055   0.000172  -0.000225   0.000028  -0.021864  -0.094696
    23  H   -0.000339  -0.000089  -0.000006  -0.000079  -0.003432  -0.045840
    24  H   -0.000069  -0.000127   0.000110  -0.000046   0.014172  -0.050039
    25  H   -0.000868  -0.000037   0.000298  -0.000158  -0.011090  -0.205368
              19         20         21         22         23         24
     1  C    0.031743   0.001757  -0.031734   0.005568   0.007105   0.002891
     2  C   -0.033095  -0.000412   0.048355  -0.001913  -0.006237   0.004709
     3  C    0.005426  -0.000060  -0.016844   0.001961  -0.000366   0.000401
     4  C   -0.002969  -0.000390   0.007314  -0.001163  -0.000723  -0.000378
     5  C    0.001193   0.001303  -0.008127   0.000721  -0.000144   0.002960
     6  C    0.011600  -0.001999  -0.004954  -0.003162   0.001636  -0.007050
     7  F   -0.010680   0.000009  -0.003120  -0.000732  -0.001181   0.000937
     8  H    0.000492   0.000097   0.003038   0.000059  -0.000649  -0.000800
     9  H    0.000185  -0.000005  -0.000613   0.000076   0.000142  -0.000499
    10  H    0.000011  -0.000010   0.000162  -0.000017  -0.000008  -0.000031
    11  H   -0.000224   0.000042  -0.000110   0.000048   0.000005   0.000063
    12  H   -0.001736  -0.000056   0.000163  -0.000290   0.000083  -0.000433
    13  O   -0.003473   0.000042  -0.001957   0.000055  -0.000339  -0.000069
    14  C    0.000186  -0.000119   0.001050   0.000172  -0.000089  -0.000127
    15  H    0.000230   0.000067  -0.000174  -0.000225  -0.000006   0.000110
    16  H   -0.000230  -0.000023   0.000020   0.000028  -0.000079  -0.000046
    17  H   -0.089926   0.007789  -0.058150  -0.021864  -0.003432   0.014172
    18  N    0.158342  -0.168070   0.124689  -0.094696  -0.045840  -0.050039
    19  C    4.972328   0.453424  -0.052403   0.026966  -0.008590  -0.006395
    20  O    0.453424   8.226012  -0.028581   0.031219  -0.002176  -0.003463
    21  C   -0.052403  -0.028581   5.259629   0.426945   0.414380   0.395741
    22  H    0.026966   0.031219   0.426945   0.477019  -0.025731  -0.025471
    23  H   -0.008590  -0.002176   0.414380  -0.025731   0.546035  -0.057852
    24  H   -0.006395  -0.003463   0.395741  -0.025471  -0.057852   0.555456
    25  H    0.441872  -0.034477   0.000374   0.010175  -0.002246  -0.001886
              25
     1  C    0.036491
     2  C   -0.003528
     3  C    0.001822
     4  C   -0.003788
     5  C   -0.003768
     6  C   -0.013510
     7  F   -0.002699
     8  H    0.000328
     9  H    0.000058
    10  H   -0.000110
    11  H    0.000435
    12  H   -0.006551
    13  O   -0.000868
    14  C   -0.000037
    15  H    0.000298
    16  H   -0.000158
    17  H   -0.011090
    18  N   -0.205368
    19  C    0.441872
    20  O   -0.034477
    21  C    0.000374
    22  H    0.010175
    23  H   -0.002246
    24  H   -0.001886
    25  H    0.650021
 Mulliken charges:
               1
     1  C   -0.612213
     2  C    0.263279
     3  C   -0.376667
     4  C   -0.182400
     5  C   -0.367676
     6  C    0.240835
     7  F   -0.128289
     8  H    0.255958
     9  H    0.241207
    10  H    0.221770
    11  H    0.242892
    12  H    0.245339
    13  O   -0.285758
    14  C    0.037090
    15  H    0.136759
    16  H    0.130385
    17  H    0.228651
    18  N   -0.145735
    19  C    0.105723
    20  O   -0.481922
    21  C   -0.475093
    22  H    0.194252
    23  H    0.186303
    24  H    0.177096
    25  H    0.148213
 Sum of Mulliken charges =  -0.00000
 Mulliken charges with hydrogens summed into heavy atoms:
               1
     1  C   -0.612213
     2  C    0.519237
     3  C   -0.135459
     4  C    0.039370
     5  C   -0.124784
     6  C    0.486173
     7  F   -0.128289
    13  O   -0.285758
    14  C    0.304234
    18  N    0.082916
    19  C    0.253936
    20  O   -0.481922
    21  C    0.082558
 Electronic spatial extent (au):  <R**2>=           4097.0922
 Charge=              0.0000 electrons
 Dipole moment (field-independent basis, Debye):
    X=             -1.6550    Y=              4.5989    Z=              1.5965  Tot=              5.1417
 Quadrupole moment (field-independent basis, Debye-Ang):
   XX=            -53.5004   YY=            -94.4291   ZZ=            -67.3044
   XY=             24.2933   XZ=              3.6825   YZ=             -5.2256
 Traceless Quadrupole moment (field-independent basis, Debye-Ang):
   XX=             18.2442   YY=            -22.6844   ZZ=              4.4402
   XY=             24.2933   XZ=              3.6825   YZ=             -5.2256
 Octapole moment (field-independent basis, Debye-Ang**2):
  XXX=             81.5749  YYY=            100.6254  ZZZ=             -0.5083  XYY=             10.9317
  XXY=             91.3390  XXZ=             10.3503  XZZ=             -4.5160  YZZ=              3.8771
  YYZ=             22.8577  XYZ=            -20.6517
 Hexadecapole moment (field-independent basis, Debye-Ang**3):
 XXXX=          -2625.2398 YYYY=          -1640.3139 ZZZZ=           -464.7063 XXXY=            528.3400
 XXXZ=              4.2796 YYYX=            350.9718 YYYZ=            -85.4806 ZZZX=              1.0588
 ZZZY=              1.1430 XXYY=           -758.8744 XXZZ=           -602.8241 YYZZ=           -337.2586
 XXYZ=            -36.0719 YYXZ=             46.8095 ZZXY=             10.7275
 N-N= 7.129905451655D+02 E-N=-2.960040352823D+03  KE= 6.527901804364D+02
 1\1\GINC-LOCALHOST\POpt\RM062X\6-311++G(d,p)\C9H12F1N1O2\LYWU\06-Jan-2
 025\1\\# opt=z-matrix 6-311++g(d,p) m062x scrf=(solvent=dichloroethane
 )\\test\\0,1\C\C,1,B1\C,2,B2,1,120.00000011\C,3,B3,2,120.,1,0.,0\C,4,B
 4,3,119.99999989,2,0.,0\C,1,B5,2,119.97770821,3,1.71722694,0\F,1,B6,2,
 119.9999999,3,-180.,0\H,2,B7,1,120.00000011,6,-178.28277306,0\H,3,B8,2
 ,120.00000011,1,180.,0\H,4,B9,3,120.,2,180.,0\H,5,B10,4,120.00000011,3
 ,180.,0\H,6,B11,1,119.91553063,2,-177.77151684,0\O,1,B12,2,119.9999999
 ,3,-180.,0\C,13,B13,1,179.90000005,2,180.,0\H,14,B14,13,119.99996989,1
 ,-90.04490481,0\H,14,B15,13,119.99996989,1,90.04490481,0\H,7,B16,1,100
 .00000001,2,90.,0\N,17,B17,7,179.9,1,90.,0\C,18,B18,17,119.5,7,0.,0\O,
 19,B19,18,123.2,17,-180.,0\C,18,B20,17,121.9,19,-180.,0\H,21,B21,18,11
 0.7,17,-180.,0\H,21,B22,18,110.7,17,-60.,0\H,21,B23,18,110.7,17,60.,0\
 H,19,B24,18,113.46721803,17,0.,0\\B1=1.38836258\B2=1.39076786\B3=1.387
 91869\B4=1.38794128\B5=1.38847064\B6=1.34978561\B7=1.08401108\B8=1.082
 68619\B9=1.08319424\B10=1.08269383\B11=1.08408644\B12=4.86738492\B13=1
 .20402995\B14=1.10097771\B15=1.10101205\B16=2.10863013\B17=1.00853295\
 B18=1.35074421\B19=1.22159387\B20=1.45285093\B21=1.08468404\B22=1.0919
 5812\B23=1.09207258\B24=1.09927742\\Version=ES64L-G16RevB.01\State=1-A
 \HF=-655.1186479\RMSD=4.414e-09\RMSF=4.879e-03\Dipole=-0.3715168,-1.84
 16054,0.7501004\Quadrupole=18.3222288,-23.322278,5.0000492,0.7899011,7
 .3071873,9.0626577\PG=C01 [X(C9H12F1N1O2)]\\@


 GOD GAVE US TWO ENDS... ONE TO SIT ON...    
 AND THE OTHER TO THINK WITH...              
 YOUR SUCCESS DEPENDS UPON WHICH END YOU     
 USE THE MOST...                             
                                             
 IT'S A CASE OF HEADS YOU WIN TAILS YOU LOSE.
          SOURCE UNKNOWN(IT'S JUST AS WELL.) 
 Job cpu time:       0 days  4 hours 17 minutes 48.1 seconds.
 Elapsed time:       0 days  2 hours  9 minutes  7.2 seconds.
 File lengths (MBytes):  RWF=    261 Int=      0 D2E=      0 Chk=     17 Scr=      1
 Normal termination of Gaussian 16 at Mon Jan  6 20:51:53 2025.
